<?xml version="1.0"?>
<VTKFile type="UnstructuredGrid"  version="0.1"  >
<UnstructuredGrid>
<Piece  NumberOfPoints="3656" NumberOfCells="7102">
<Points>
<DataArray  type="Float64"  NumberOfComponents="3"  format="ascii">0 1.5 0  0 0 0  1 0 0  1 1.5 0  1 0.75 0  0 0.75 0  0.5 0 0  0.5 1.5 0  0.5 0.5416666666666666 0  0.59375 1.020833333333333 0  0 1.125 0  1 0.375 0  0 0.375 0  1 1.125 0  0.2731176900584795 0.9375 0  0.25 0 0  0.25 1.5 0  0.75 1.5 0  0.75 0 0  0.375 0.2708333333333333 0  0.6988636363636365 0.3049242424242424 0  0.3700070004780415 1.223207014835696 0  0.2152777777777777 0.5625 0  0.7065972222222222 0.75 0  0.755816605839416 1.233044403892944 0  1 0.5625 0  1 0.9375 0  0.4765968975134545 0.8130930360009764 0  0 0.1875 0  0 1.3125 0  0.7230200520905139 0.5271095710287589 0  1 0.1875 0  0.8065456944857283 1.026311302284592 0  0.1989025394349107 0.3639658086323453 0  0.5610173837837786 1.302422373569134 0  0.1988404478013009 1.121971106571974 0  0.2006684233786157 1.314199941127089 0  0.1957945014059158 0.7574657032602902 0  0 0.5625 0  0 0.9375 0  1 1.3125 0  0.1872585396626935 0.1767613862169247 0  0.625 0.1357872200263505 0  0.3579988607705369 0.6752187279071372 0  0.3542598645682629 0.4446685240454171 0  0.853298611111111 0.84375 0  0.8482748428980986 0.6483887330740823 0  0.434904292337043 0.9735089916632877 0  0.5289127981947132 0.3640594777562862 0  0.8630943872689156 0.28125 0  0.8552158854975975 0.4395936347844487 0  0.875 0 0  0.875 1.5 0  0.4220125097984837 1.367704593444736 0  0.7786805222289445 0.1518305613433982 0  0.5106912476792917 1.15387535648223 0  0.4719018575171832 0.1512944470592127 0  0.7111045416270076 0.9046021331639108 0  0.5648325677324502 0.6839788263505053 0  0.8528406028045645 1.34981040186971 0  0.3267770409027224 0.132697095936875 0  0.1076388888888889 0.4714357142901397 0  0.3382041166342574 1.081658831077011 0  0.1076388888888889 0.6501998017931964 0  0.336939857934855 0.8132790107187441 0  0.1011332895939513 1.219023349055124 0  0.125 1.5 0  0.6931369161911402 1.36521986327238 0  0.1365588450292398 0.9897040264351935 0  0.894494069564806 1.216506501440302 0  0.6979421995580001 1.109252308890989 0  0.09446486974618326 0.84375 0  0.09902460374277193 0.2762138187013033 0  0.125 0 0  0.6071738698977951 0.4679566139696874 0  0.5813302051929932 0.8909335347308536 0  0.625 1.5 0  0.375 0 0  0.625 0 0  0.375 1.5 0  0.5584367514675531 0.2421278281527754 0  0.6387003935341845 1.212373184211544 0  0.3328710821074091 0.5603208220109632 0  0.3153180866444988 1.324497199562409 0  0.8972507402571203 0.1205828398285865 0  0.09975763505918693 1.381411576627209 0  0 0.09375 0  0.7350129735776203 0.6400434648676359 0  0.7422852635504635 0.4126091899693546 0  0.6214948458131655 0.5829242348930104 0  1 1.03125 0  0.8890124857173596 1.103609493873653 0  0.9044064797420978 0.984375 0  1 1.40625 0  0.2797199589081234 0.2266099526777492 0  0.8900711714933843 0.5452652610665051 0  0.5625 1.41109097914689 0  0.5771873236231599 0.7871288709412081 0  0.4629026549700547 0.6444907857242902 0  0.4707400437282182 1.250208881978203 0  0.7058333555117404 1.007011474410331 0  0.1066894620250489 0.1057942827000653 0  1 0.46875 0  0.1982763988305144 0.8630217216098248 0  0.3044975612215005 0.3505765843315861 0  0.2069061551088731 0.4632480810527653 0  0.2874931823665684 1.167399315362542 0  0.09935994962464322 1.119528674539023 0  0.2492141102951399 1.035064639190217 0  0.205122617594694 0.659941527626889 0  0.4415991400932548 1.07680132097204 0  0.8117743143785759 0.747072581358216 0  0.1016887571701759 0.373897264393306 0  0.09702680527698024 0.7467009337141702 0  0.6010452452844874 1.117835782605109 0  0.4233035121279586 0.364751225851538 0  0.4766472437858406 0.4467080934398343 0  0.197279564587237 1.218109058319583 0  0.195059746179383 1.415138111800065 0  0 1.03125 0  0.7944556035490904 1.139555608059306 0  0.8055761514166343 0.9287957779324761 0  0.9062388969564916 0.7259203047394007 0  1 0.65625 0  0.3649860088942518 0.9061942891014568 0  0.1995363810916254 0.08160367156984571 0  0.1965803980221572 0.2701459083832078 0  0 1.40625 0  0 0.84375 0  1 1.21875 0  0 1.21875 0  0 0.65625 0  0 0.28125 0  0 0.46875 0  1 0.28125 0  1 0.84375 0  1 0.09375 0  0.3125 1.423354714264689 0  0.6268412953878431 0.3717181680448184 0  0.7615433983243373 0.825903799833412 0  0.4705652344209434 0.2810631566806679 0  0.5625 0.06789361001317526 0  0.7078132492706101 0.08659313238599885 0  0.6501203725378025 0.2255138941964173 0  0.7779397454165764 1.408827159833357 0  0.4315522809025895 0.7318943947551465 0  0.286317216273777 0.7349210370915314 0  0.8211202725831225 0.0722865889029191 0  0.4375 0.06664900101618589 0  0.1243605897128204 0.560817758041668 0  0.7866085586335239 0.332139889384601 0  0.7662549424564286 0.2427058610117072 0  0.659159990169629 0.8287497705297262 0  0.3483593364071734 0.993432677543493 0  0.6509085886397882 0.6658296393934026 0  0.4124441053099929 0.515233114904136 0  0.8028754864049193 0.5699563641282377 0  0.9215996629777032 0.8985267555153429 0  0.1031619230433501 0.1910177635643535 0  0.4913925974114119 0.9025644809929702 0  0.9134850293054187 0.207998342136356 0  0.9077744910208904 0.3628409084542325 0  0.5073237529117862 1.020678282061946 0  0.6422043910625934 0.9523960522754635 0  0.4262959153624687 1.160025134897262 0  0.1186193863525302 1.300371421298467 0  0.6869136722796675 1.281319123851258 0  0.2852224487244256 0.6309380475373765 0  0.769411549319536 1.320440919635272 0  0.8301007401272162 1.266244790593781 0  0.293556310603522 1.247338516073101 0  0.2730780899659728 0.5076456838120345 0  0.7861441654999169 0.4788595706924942 0  0.933575074144418 1.359375 0  0.5456577398776828 1.224827570074465 0  0.5120515366210536 0.742615568827279 0  0.5456340366652136 0.6068011890006753 0  0.9375 0 0  0.9375 1.5 0  0.0625 1.5 0  0.9258229832307951 0.6197874440682593 0  0.2572368960936686 0.8092393776273193 0  0.3949514126988875 0.6069406987765023 0  0.3935904649440892 0.1868580898902989 0  0.5484509287585916 0.1435408335427816 0  0.4055459348541232 1.292023678232858 0  0.4872066186725788 1.325889797190081 0  0.4824272183395438 1.421224744338607 0  0.3125 0 0  0.276862896774465 0.07301714364660816 0  0.8852507726194001 1.421758043009471 0  0.1356923565998962 0.9109068419226676 0  0.8359206433187577 0.2085989003292992 0  0.6400523637546643 1.422996511900554 0  0.2536444206305443 1.367768487210391 0  0.9379889569288455 0.796875 0  0.7009339319049021 0.1651763138542897 0  0.0625 0 0  0.5439726429482686 0.9556037949504178 0  0.2769742820335026 0.4253376293922818 0  0.9010156902763872 1.291502004430446 0  0.6238725401926793 0.2962900553556614 0  0.9232662345860678 0.4757317878179469 0  0.2576779263542928 0.1568193960467552 0  0.6299753347334723 1.327723632433931 0  0.1771892641088037 1.051369118277191 0  0.06033827779496215 0.984375 0  0.2085836912155759 0.9733995473482198 0  0.6708627004810417 0.4308432993753897 0  0.427122648600256 0.8672335748314701 0  0.6331482226038917 0.7380877030406653 0  0.3654072361857449 0.07162474056376941 0  0.05268336502195616 0.515625 0  0.09419984670660936 1.047808482710882 0  0.384135249980088 1.428745414879924 0  0.9361032827126627 1.157904634368841 0  0.302836848965532 0.8742633397401882 0  0.4067491503685943 0.7987473104598934 0  0.3558548039808351 0.7455279417485912 0  0.0513586807157099 0.421875 0  0.3564009008073318 1.154420385881018 0  0.05135471636603612 0.609375 0  0.7109426220682837 1.434854628179531 0  0.1515053667759731 0.7038577954180352 0  0.0647185119795106 0.9082444132931156 0  0.05231574802664123 1.170130306067141 0  0.1533427321388335 0.4196969330136291 0  0.264925340364291 1.102223647600234 0  0.1487373590638267 1.169239286396148 0  0.05044031767800948 1.265625 0  0.05193538697843247 0.326376151749627 0  0.9315471936344578 0.2743814833680878 0  0.6452586360535191 1.065735083574289 0  0.760558708222005 1.078669208125719 0  0.7323208318991764 1.168604417828729 0  0.6406868866636106 0.06789361001317526 0  0.5504433895064976 1.072865836307467 0  0.2464479713943203 0.3158503212325262 0  0.05304724389930324 0.1462586894629701 0  0.4375 1.5 0  0.8125 1.5 0  0.1415766928653409 0.7964353259647637 0  0.04723243487309163 0.796875 0  0.05015277067787238 0.23114200190218 0  0.1506041286950854 0.3182225573540559 0  0.04697566456143813 0.703125 0  0.932214461466593 1.048576184124524 0  0.5378954820998444 0.4819963842625978 0  0.7888237271674655 0.6824915590223776 0  0.8140766721389939 1.202394175153234 0  0.5835389593800279 0.5292764624073397 0  0.5373696378449176 0.8407030129848175 0  0.5744937832819315 0.4111492105904384 0  0.653327160816024 0.5205832743260757 0  0.4540565422956371 0.2160018780190284 0  0.8687188106443969 0.7798704687191439 0  0.6916734339165079 0.3693981866845503 0  0.6875 0 0  0.4051686358248369 0.1229632202914007 0  0.1605015840761855 0.6138342388486999 0  0.1706587470506019 0.5162844698625134 0  0.8684032554285257 1.042957182979488 0  0.8406629733206215 0.3732562547250589 0  0.938199208823281 0.06724219411781264 0  0.6794951645420886 0.6090169936860423 0  0.7478065150288655 0.9578315764456105 0  0.9478315426308785 0.4148523627247288 0  0.3105662054292678 0.2849041205875215 0  0.5598632575771201 0.3070134556448483 0  0.5917183757337765 0.188957524089563 0  0.5151693044923682 0.1967111376059941 0  0.3881861199667486 1.042714448240003 0  0.4997671638927392 0.09065576881037679 0  0.6875 1.5 0  0.4375 0 0  0.8125 0 0  0.5625 0 0  0.3125 1.5 0  0.1875 0 0  0.1875 1.5 0  0.5625 1.5 0  0.3521580210018756 1.375016303292267 0  0.6503109227181111 0.8905219994823097 0  0.05988857758114403 1.434032614945904 0  0.8545428057905027 1.155276221253479 0  0.452695441336405 0.58270404912677 0  0.8447799231201838 0.5016201263355714 0  0.946563782798248 1.249759823079916 0  1 0.140625 0  0.8367884202315332 0.1317397455719299 0  0.1454756991922557 0.2357711058119354 0  0.4153218743225581 0.4535899532423587 0  0 1.078125 0  1 0.328125 0  0.8238075538842757 1.085
[...]
<PointData  Scalars="velocity tangencial"> 
<DataArray  type="Float64"  Name="velocity tangencial"  format="ascii">7.9409338805090970e-20  4.4336880832842456e-21  2.7361824569383870e-21  6.7762635780344289e-18  1.8201336247758756e-19  2.5197876034317868e-20  9.4510217431623136e-20  6.4500000000000570e-04  1.2081534541208418e-04  1.3785658043969013e-04  2.9224530816523329e-20  9.4209114998207321e-20  2.6340347203842633e-20  4.7355872641349404e-19  6.8024887746021562e-05  1.1826204821445016e-19  3.2250000000000253e-04  9.6750000000000926e-04  9.7805725668619128e-20  1.4405605287375045e-04  1.5102703065927495e-04  8.4428055052835594e-05  4.6967885740283669e-05  1.8087506992985948e-04  1.9994833044762809e-04  1.6970105577332977e-19  2.6671955553819772e-19  1.0990766031867764e-04  5.0339719966052225e-20  2.2569433413055687e-20  1.6614861845243786e-04  5.4756583894300661e-20  2.3754050780555778e-04  7.1886694237543547e-05  1.1402168298788468e-04  5.1098951304478338e-05  5.3008962597884335e-05  4.7951413950509398e-05  2.4604994642861151e-20  2.6972858554286584e-20  6.3892988043230726e-19  8.5510537976417361e-05  1.1191228677742687e-04  7.7478870499019228e-05  1.0210094832314678e-04  2.0009876923830929e-04  1.6153141692217153e-04  1.0060326651615260e-04  1.5315915183577726e-04  8.9968067289915451e-05  1.2119880554277510e-04  5.3841445236022935e-20  1.1287500000000102e-03  9.4309269435051684e-05  8.9854071893024056e-05  1.0967080521390601e-04  1.2489561876214946e-04  1.8609737141415280e-04  1.3301436361630561e-04  2.7306905977032305e-04  1.0148572785871992e-04  2.7637341150347663e-05  7.9745718153174925e-05  2.4781912691400710e-05  7.8921088426759268e-05  2.7423840091214853e-05  1.6125000000000162e-04  1.4556508937507587e-04  3.6042700385832350e-05  3.1478180576001609e-04  1.7116011993647021e-04  2.4744076282873412e-05  4.6169743816385110e-05  6.4153541687441985e-20  1.4962017761612064e-04  1.4004263241748795e-04  8.0625000000000705e-04  8.9066014568997806e-20  9.4435294741002356e-20  4.8375000000000474e-04  1.5607159587366484e-04  1.3796213905365750e-04  7.4287266773233131e-05  7.6455335732997486e-05  3.6570825045116120e-05  2.7839739339743008e-05  2.9385808180724665e-20  1.7845643845440542e-04  1.5555363850301666e-04  1.4886624703150608e-04  2.3117642442535538e-19  2.6120893604510012e-04  1.9646660055913241e-04  1.5123045210909589e-18  1.2085328884918809e-04  1.1289530878150667e-04  1.3165851149109364e-04  1.3898054176868566e-04  1.0360073036131016e-04  9.9962903508202746e-05  1.8111636610212690e-04  3.9388359556414715e-05  1.1124937023501101e-19  5.0880421393069934e-05  1.1313865884436264e-04  5.3790350592230037e-05  6.9826615718715236e-05  2.6626727244568225e-05  6.2379057338797901e-05  4.6169636193180037e-05  9.9139198860262866e-05  1.9362074876993248e-04  3.5801432692775393e-05  2.4148255866614131e-05  1.3323735258887544e-04  1.3989877368059597e-04  1.3152476575633198e-04  5.1375197497241375e-05  5.8173455128909339e-05  2.9548602801497379e-20  2.3981487030641952e-04  2.2298409795487670e-04  1.2811471102511376e-04  1.2753446526507666e-19  8.6594551891771749e-05  5.3541983105518279e-05  8.9927213660969974e-05  3.5152095254475704e-20  2.7157949887384638e-20  3.9994990665981756e-19  2.0500698956755812e-20  2.2945917391939977e-20  4.8849351242442582e-20  2.4623868884827237e-20  7.2402082821258263e-20  2.6859546885439374e-19  2.7531697238804843e-20  9.2846389075655684e-05  1.5693599456988088e-04  2.0082730110131813e-04  1.5654041545656950e-04  6.3185218284904257e-05  6.7582551074978298e-05  1.4573595533718696e-04  1.9276351800484403e-04  9.6136242410998991e-05  6.5592110101216845e-05  3.8617856758300637e-05  6.1429985420265553e-05  2.7803096278484779e-05  1.3495968734304642e-04  1.2439089426488322e-04  1.6713895194239551e-04  8.2955908473571159e-05  1.5959876938874461e-04  1.0232531245590977e-04  1.6618956681075276e-04  1.4578149104284153e-04  5.0881011451142344e-05  1.1450977435077931e-04  4.8098448891965475e-05  7.3453337015452237e-05  1.1518762961707868e-04  1.5781185748996231e-04  9.4115774975803856e-05  3.2304850370653337e-05  1.5091565947273068e-04  6.1208299878061484e-05  1.9650765296856586e-04  2.7552477855462444e-04  7.1641582669478625e-05  6.4864801264997380e-05  1.5650405219767968e-04  4.1194089534810579e-04  1.1366010566140656e-04  1.1803181782685193e-04  1.2787319695727601e-04  2.7255811309559162e-20  1.2093750000000119e-03  8.0625000000000767e-05  8.8905356276269530e-05  6.2880298730532872e-05  8.6939169636222145e-05  1.3443001937336887e-04  1.2125081554877424e-04  9.0244030763995435e-05  1.0196284484739834e-04  1.2779041825389324e-04  1.1064891750038200e-19  5.7714188340399588e-05  3.0714803998263209e-04  3.5761362583855598e-05  8.7717111452525432e-05  1.6345561031626355e-04  6.5386404548878094e-05  9.9557987951672561e-05  1.1616135361689114e-04  3.3240442662396096e-20  1.2712552633015219e-04  8.3145911423870950e-05  3.5161090109471016e-04  1.5745790978933180e-04  7.4070600519305643e-05  1.0062843157474124e-04  1.2796883939435627e-04  4.5985785357941997e-05  1.6194966172471233e-05  5.3583480550826696e-05  1.5760046322501418e-04  9.9113100552775671e-05  1.5660398802124357e-04  6.2729922427205449e-05  1.2552951696374830e-05  2.5169992265582799e-05  1.1580064030480655e-04  2.1260074432246262e-04  7.3766988018961890e-05  9.2761302818482287e-05  7.9762545144403658e-05  1.5665217142162639e-05  8.2271913898786941e-05  1.1589177917027985e-05  2.1238586414474536e-04  3.6163294340076224e-05  1.7253197509435939e-05  1.4232742676340870e-05  4.5563752741136991e-05  6.5352150864420247e-05  3.9392090147060652e-05  1.3840168527469111e-05  2.1755003205839949e-05  4.6139905243045624e-05  1.5154537559547673e-04  2.1153007189873518e-04  1.8756546914360810e-04  5.9695777509446640e-05  1.2280520267479936e-04  1.0143475282605211e-04  2.4219252570748685e-05  5.6437500000000519e-04  1.0481250000000093e-03  3.6130932677603004e-05  1.2142047458054766e-05  2.5217781510177532e-05  6.2725545985121677e-05  1.1286520049799253e-05  1.7180775109884905e-04  1.3679236154025352e-04  1.8616013142581526e-04  2.6074873593621111e-04  1.4125822247794235e-04  1.2714378618320813e-04  1.5092111494573467e-04  1.5579861409510082e-04  1.4888603881820883e-04  1.7546777040091069e-04  1.5626112001948075e-04  1.1000580025583335e-19  1.0350820104090532e-04  3.5655553545785113e-05  3.9304432546345118e-05  2.4976419499023471e-04  1.1862609147439620e-04  1.2537875090526811e-05  1.6467171762922576e-04  2.0256945868858591e-04  4.6331100159626992e-05  1.2798435186334541e-04  1.5919419451183164e-04  1.4100601977888225e-04  1.4607662324357782e-04  8.9824592073445080e-05  8.3294085174743946e-05  8.8687500000000886e-04  8.4291023452407896e-20  7.4355346643886257e-20  9.5900853980805863e-20  4.0312500000000342e-04  8.8249028929975409e-20  2.4187500000000229e-04  7.2562500000000708e-04  8.4266623375758005e-05  1.6316797312691759e-04  2.2439695762723456e-05  2.8739737740878445e-04  1.0412205707710369e-04  1.3746671882842413e-04  2.5231942646347573e-04  4.2414948550270046e-20  6.1870403086318232e-05  7.0713237413384551e-05  1.1645761626456982e-04  2.4806068932493128e-20  1.1387722663587987e-19  2.5598859446141251e-04  1.6888842039031266e-05  4.1253153763590971e-05  4.6470393267678324e-05  1.2733316858449707e-04  1.2528904577315089e-04  2.1122511877219992e-04  1.3443064662270113e-04  1.2668567182140710e-04  1.6240549127510630e-04  1.5488657631526257e-04  9.0753250088840143e-05  5.9430360596698136e-05  8.2624104427039011e-05  1.4070125920810240e-04  2.3626529075513032e-05  7.5420954217885120e-05  1.6145231761075058e-04  1.4316699773739573e-04  1.4207700170379108e-04  1.7865627358462736e-19  5.0166882946745548e-04  8.9020090649925200e-05  6.5701113304826716e-05  8.1571270738962779e-05  1.8026965391725589e-05  4.0667507534167873e-05  5.6762320658039187e-05  4.4432702677059338e-05  1.0852306186156782e-04  1.7657816781494344e-04  1.7209324868769452e-04  1.7744995855541586e-04  2.2982462882120022e-04  1.5700954423577133e-04  1.9567011998395422e-20  7.3156460019363831e-05  2.0684428483367043e-04  1.4626900781206063e-04  1.1593249644441101e-04  4.9655789533901133e-05  2.8551533317832708e-05  7.1793587222234700e-20  1.1288381132361088e-04  5.7788128799240082e-05  5.8335237192376881e-05  1.0727666672058577e-04  2.5311270116991853e-05  1.5453357183682479e-04  1.1878590189255251e-04  9.0924383944041625e-05  1.0939749198872138e-04  2.6310542428509411e-04  2.3775076307017576e-04  1.1691417161534316e-04  5.9135199576976068e-05  2.9772531305533750e-04  1.4769519638846611e-05  7.1279653066593066e-05  1.8294171205296320e-05  6.2259929158579153e-05  9.7488557544149018e-05  2.6593644950735439e-19  1.1502879703022331e-04  8.9218898536005622e-05  1.9114597065234560e-04  1.7826795346103801e-04  1.4903726058084006e-04  1.5204282720753253e-04  1.4356864634497131e-04  4.8712266067420243e-05  6.2538954972795412e-05  3.8276116543490513e-05  2.6295909630505771e-05  1.7651491487426812e-04  2.0208934225160604e-04  8.8505727193217108e-05  1.0472954313661860e-04  1.0525933414925398e-04  9.2095028646433443e-05  1.0630866154903512e-04  1.0854381362990123e-04  1.4259098794314388e-04  1.4364013162044910e-04  1.3899923007383246e-04  9.9791607706783408e-05  6.3215371656812094e-05  3.9341685856963123e-05  5.5738434154062114e-05  1.5029603944577026e-04  1.3038020846573656e-05  1.8185245399658848e-04  2.0884468025057632e-04  1.8578094862504982e-04  1.5005204873148138e-04  1.2284780572218768e-04  1.2336559543988572e-04  2.9907366219247101e-04  5.3504034997994589e-05  2.7766778383481960e-18  7.6696960273297469e-05  6.8949213768053748e-05  5.6137714231783655e-05  9.0827748220468767e-05  7.7398639314830723e-05  7.4147033668385944e-05  5.1523531135802130e-05  1.3380399222404952e-04  6.7078386171178962e-05  1.8099482779167152e-04  1.8218382140376479e-04  7.5509374822802609e-05  8.4842801246157244e-05  1.6586583361462984e-04  3.4902006797915135e-05  1.5434397595710960e-04  1.4192442074379192e-04  1.5676390913630829e-04  1.5671792367646098e-04  4.0328203905245862e-05  4.5638573066831008e-05  4.7097154229070731e-05  1.2546750941974866e-04  5.3010808453817078e-05  2.9881031815976053e-05  4.2145221028535112e-05  1.5146656367150853e-04  3.8688187263047179e-04  2.3075871303972464e-04  1.4940587415689812e-04  1.2045767293689027e-04  2.2910255228444881e-05  7.7371005693356839e-05  7.4422541745791741e-05  2.1610458636559348e-04  2.7088744397384220e-05  1.9366168169106980e-04  7.4249812422949430e-05  8.9762804140101389e-05  3.9803935107628251e-05  1.5895703302566658e-04  1.1642121616418988e-04  8.0594887171245601e-05  3.5304280370858480e-05  5.2173333165018248e-05  8.7702305245031679e-05  1.3154407539213122e-04  1.3066777118025254e-05  8.3040466166201213e-05  1.1408229482014052e-04  1.0124301562232558e-04  1.3099046007937143e-05  1.7235496816433503e-05  1.6333005002797305e-04  2.2074281439088544e-04  2.2518212307889934e-05  1.0992922783925276e-04  2.8823229597564632e-05  1.3583198034091426e-04  1.0043242758669563e-04  1.1247284021858460e-04  1.2476843358035343e-05  1.2340175699360423e-04  2.4204485513632482e-05  1.5599715737811548e-04  2.0266960636098770e-04  5.4592490837579325e-04  1.3883918865173842e-05  8.2079352398447240e-05  8.3123732588033477e-06  1.0685697429842777e-05  1.5843149507599423e-05  1.2409744324980618e-04  1.1689457252806181e-05  5.2131701517686034e-19  3.2883577651898689e-20  5.5241436634514174e-20  1.2497140782202756e-19  1.7679083376936886e-20  1.9249094088281555e-20  3.0232626966558786e-20  4.1411900851285172e-20  2.9135810565810847e-20  2.7694736262565293e-20  2.6849068742632764e-20  4.2926122831585508e-19  4.2332576392509975e-19  5.7007698449293506e-20  3.2253565322124917e-20  3.5895914751693666e-20  1.8743595462218274e-20  3.2460930731466182e-20  3.0981889681760318e-20  1.4964443649820869e-19  1.7551825408203078e-19  1.8754715983111823e-19  1.0521426419036017e-18  2.7670035074870251e-19  4.8399429860519245e-05  8.4754108164179960e-05  4.2533006306743208e-05  9.4689419896463737e-05  5.8601420304682934e-05  7.3142393379504317e-05  1.3552622997066685e-04  9.0682879300518001e-05  1.5465874719593000e-04  1.5153937826181476e-04  1.3331138138948100e-04  3.7075884996423475e-05  7.1729020554257573e-05  1.0157062535981400e-04  1.6305558005496888e-04  1.5878313363691630e-04  2.3531027381569985e-04  1.9330554223351482e-04  4.3045585161030463e-05  3.1464329124494079e-05  8.4381459422586296e-05  1.4409288260554441e-04  1.0460432352862458e-04  1.2885713040527703e-04  9.8447608984064824e-05  1.0985657534795027e-04  8.7614847930366402e-05  1.5917562197867303e-04  3.1541978690933222e-05  3.0730028822685699e-05  9.7879951572519541e-05  1.7966212575702513e-04  1.6261084706789745e-04  2.2073642069173863e-04  1.3181177915488527e-04  8.5628481136863858e-05  2.5949529015647770e-05  3.7447899767664410e-05  2.9068986609602332e-05  1.0983881051377254e-04  1.2634375240900571e-04  1.6950879309106899e-04  1.4626596186328268e-04  1.9864425772706659e-04  3.4962692854186216e-05  3.7050850063699570e-04  2.2611457234670652e-05  1.2831322002408642e-04  9.7141266238699107e-05  1.5590603635672631e-05  1.4498548256181286e-05  1.5731580966206457e-04  1.0927194412545152e-04  4.3646282901801176e-05  1.5554712614856115e-04  2.8432274143653767e-05  6.5870875627243813e-05  7.1309248814579662e-05  2.2207522155514035e-04  2.4829567475059052e-04  9.7024670619723230e-05  1.2001382937815610e-04  1.4663083687726453e-04  1.6860727066375891e-04  1.3839164024699157e-04  1.5418709611386293e-04  7.9428141256384342e-05  2.6790519681143966e-05  6.4144781635531745e-05  9.2687176328764736e-06  7.1723483538280817e-05  3.6874735824375883e-05  4.3785593234577586e-05  1.0773744236479471e-04  1.0767932822734631e-04  1.2538331833471535e-04  1.3032027000871031e-04  9.7418170537347937e-05  3.6281250000000229e-04  7.1084508949517160e-05  1.1972094130566585e-04  1.2687141506684087e-04  1.4427286791983315e-04  1.4250519786809901e-04  1.6567158650766415e-04  3.0517527212966253e-04  1.7015991756504881e-04  5.0792999928208475e-05  5.3372018968390013e-05  1.1678404604395683e-04  7.2134987117820004e-05  2.1631635358849120e-05  1.1004898462383936e-04  1.9496510534907943e-05  1.8521950137316760e-04  9.0356749108165798e-05  1.0146973228152257e-04  5.4680757682863145e-05  2.6117502161783978e-04  1.7699867638734402e-04  1.4001916254192454e-04  1.4188745261580689e-04  2.3712809657020455e-04  4.6306355082671023e-05  4.5649350502632563e-05  1.4676919090233806e-04  6.3238859943581601e-05  1.1735952226944306e-04  1.1645436234327818e-05  1.1648186532587484e-04  5.9242903470946371e-05  8.3283739857658789e-05  3.0502671348999715e-05  4.2930934786121038e-05  3.3514366469546567e-05  3.5720493299061352e-05  6.6546580213909805e-05  1.4528683775426139e-04  4.8673674878279319e-05  1.3016130420654258e-04  1.1200125928763311e-04  8.2093343456590074e-05  1.1036336817194339e-04  6.4840244766808339e-05  7.1530243069180494e-04  2.7503057098139562e-05  5.9856286506180689e-05  6.6504450299462078e-05  9.3136236983794985e-05  1.3156031814839521e-04  9.5139373746797046e-05  2.9945778670282858e-04  2.9061319055786176e-04  3.2408777344408496e-04  3.4650031860533468e-04  3.2262995938586156e-04  3.9410920886006240e-04  3.4119820449129055e-05  1.0658393531202372e-04  7.5089240337851439e-05  1.0644595556028395e-04  1.2946363934026166e-04  9.8432553423167803e-05  1.3342699527390042e-04  5.2406250000000423e-04  1.6696757335473908e-04  7.8551597219079407e-05  7.4983692872665543e-05  1.3937946284235764e-04  9.3692445420422819e-05  1.1536713926943393e-04  5.9522914590822825e-05  7.1429316407861185e-05  1.4494524078187206e-04  7.0523376905658907e-05  9.8293073257335015e-05  1.0523320317991982e-04  4.1683829967434962e-05  5.5384710489351838e-05  5.5825792483478039e-05  1.3059776768157527e-04  1.6393346479408379e-04  1.4272472913033838e-04  1.5491593585406611e-04  2.3185218732150535e-05  1.5605989948769782e-04  8.2777567812029502e-05  9.3936160948007502e-05  4.5079913963666111e-04  6.6280750821120767e-05  4.1850656013053972e-05  9.2952210901958089e-05  1.0621631122180576e-04  3.1024767645447994e-05  4.3014550011402808e-05  1.7147445653433509e-04  1.4814761532365485e-04  1.3901046073858467e-04  1.2966911940125959e-04  3.9074055141364201e-06  4.0312500000000397e-05  1.3559439628393769e-04  9.3474147600355048e-20  2.2824925350262653e-05  8.1562103766767038e-20  1.2662460355565870e-04  5.3041805680973030e-05  1.3071036670436731e-04  7.0814921889950476e-05  7.9231105143694370e-05  9.3079892586673960e-05  8.0983899875124008e-05  1.0658126848856759e-04  2.0932310911291567e-04  6.8863002250395936e-05  8.7853237874039735e-05  8.6889929847413301e-05  9.7659036919417523e-05  5.4885109748494696e-05  1.2299453273493467e-04  9.3070818898581163e-05  1.2917904906935670e-04  1.4750847055051573e-04  8.8899551652068837e-05  1.3103885422688540e-04  2.8186288526487900e-04  5.3732975525783715e-05  2.1656984415645731e-05  1.1511325859593750e-04  1.8809686091136499e-04  9.5100045337990084e-05  2.6255251728540514e-05  1.1383043822738320e-05  1.5067058834715460e-04  1.7317150233823477e-04  2.6713081045764720e-04  1.0496406857370794e-04  1.5304335321898588e-04  3.7061034371142667e-04  2.0141870349293413e-04  1.5809828738453464e-04  7.0323303365685312e-05  6.4470534530939854e-05  5.9562150997946809e-05  7.0131827987065111e-05  8.2239688702912553e-05  1.3582355936720913e-04  2.3669571953147480e-04  1.1914335619223174e-04  1.2252572520118484e-04  2.1473805757997824e-04  1.6656381413200858e-04  2.0127179774956418e-04  1.8436318174488219e-05  1.5857921787407455e-04  1.6594308781270770e-04  1.5414867347212776e-04  1.4897041927933031e-04  1.1689080464396967e-04  5.9899278794739068e-05  1.1293715705053120e-04  8.2178900874864397e-05  1.7419123617098685e-04  7.4955698416615628e-05  4.8035567823499093e-05  2.3531736567989007e-05  1.5902251205560542e-04  1.5690203809085439e-04  8.3920519341819911e-05  1.7294505172511730e-04  1.1972255138899316e-04  2.8765758010338154e-04  9.1718289501288276e-05  1.0262787236557022e-04  9.5142445249883761e-05  3.2726325335557263e-04  1.1223605186895251e-05  6.2336849132877152e-05  6.6165280402395287e-05  1.4773149762341896e-04  1.1585517113902425e-04  2.1682768209693321e-05  3.2424838607780183e-05  2.4387830945565724e-05  2.3230491587895481e-04  9.9249140277504847e-05  1.0393037345588587e-04  9.9048979956641622e-05  2.1278192938961278e-05  1.5538304437992290e-04  1.5041530685294951e-04  5.5436405129111149e-05  1.3295110656883608e-04  6.6286837757211973e-05  8.3759331437365504e-05  1.1592817711649018e-04  6.7059391699789435e-05  2.6574248761298002e-05  2.1765401994745938e-05  1.5238834743698800e-04  2.5827062064571414e-04  3.5763899207423768e-05  1.6580922302277085e-04  1.3457625113788750e-04  1.4264822681931896e-04  7.6178158568376911e-06  3.5928108576340429e-05  8.8440121752454608e-05  8.8575655240285043e-05  7.6040360447530774e-05  8.4853692604240218e-05  1.6185935309710587e-04  1.8323343562464035e-04  2.1265291165296416e-04  2.0227200679084298e-04  1.0142338248863409e-04  6.9676781427217355e-05  7.0832432927447854e-05  4.7783787115288563e-05  2.3451904406701944e-04  2.2670670722292177e-04  1.8915594288462003e-04  3.1372441102773025e-05  8.4251343662281301e-06  2.5026972964904371e-05  1.8277892926096417e-05  5.8490923776947367e-06  8.2942903073817488e-05  8.6717606729345398e-05  4.2977360258620284e-05  2.0074908362884507e-04  2.9560270434086388e-05  4.1373392703501775e-05  2.7963046388544525e-04  3.7723718593445880e-04  8.5001359557900467e-20  4.9379563408428638e-05  7.7493518502111775e-06  2.0026337310114906e-05  2.0395856462569556e-05  6.2986269809859984e-05  4.0207165019691803e-05  3.5395231306711214e-05  4.9654604763670189e-05  6.4748199815009276e-05  6.6951569810827933e-05  1.2876340783214208e-04  5.8201557496290865e-05  1.1623360008038828e-04  1.4539082849384665e-04  9.8496331275582216e-05  4.5612850649359969e-05  2.9609766059907465e-05  6.9224812130927642e-06  3.3191353000352413e-05  2.8585846366518257e-05  1.29415903537