<?xml version="1.0"?>
<VTKFile type="UnstructuredGrid"  version="0.1"  >
<UnstructuredGrid>
<Piece  NumberOfPoints="3656" NumberOfCells="7102">
<Points>
<DataArray  type="Float64"  NumberOfComponents="3"  format="ascii">0 1.5 0  0 0 0  1 0 0  1 1.5 0  1 0.75 0  0 0.75 0  0.5 0 0  0.5 1.5 0  0.5 0.5416666666666666 0  0.59375 1.020833333333333 0  0 1.125 0  1 0.375 0  0 0.375 0  1 1.125 0  0.2731176900584795 0.9375 0  0.25 0 0  0.25 1.5 0  0.75 1.5 0  0.75 0 0  0.375 0.2708333333333333 0  0.6988636363636365 0.3049242424242424 0  0.3700070004780415 1.223207014835696 0  0.2152777777777777 0.5625 0  0.7065972222222222 0.75 0  0.755816605839416 1.233044403892944 0  1 0.5625 0  1 0.9375 0  0.4765968975134545 0.8130930360009764 0  0 0.1875 0  0 1.3125 0  0.7230200520905139 0.5271095710287589 0  1 0.1875 0  0.8065456944857283 1.026311302284592 0  0.1989025394349107 0.3639658086323453 0  0.5610173837837786 1.302422373569134 0  0.1988404478013009 1.121971106571974 0  0.2006684233786157 1.314199941127089 0  0.1957945014059158 0.7574657032602902 0  0 0.5625 0  0 0.9375 0  1 1.3125 0  0.1872585396626935 0.1767613862169247 0  0.625 0.1357872200263505 0  0.3579988607705369 0.6752187279071372 0  0.3542598645682629 0.4446685240454171 0  0.853298611111111 0.84375 0  0.8482748428980986 0.6483887330740823 0  0.434904292337043 0.9735089916632877 0  0.5289127981947132 0.3640594777562862 0  0.8630943872689156 0.28125 0  0.8552158854975975 0.4395936347844487 0  0.875 0 0  0.875 1.5 0  0.4220125097984837 1.367704593444736 0  0.7786805222289445 0.1518305613433982 0  0.5106912476792917 1.15387535648223 0  0.4719018575171832 0.1512944470592127 0  0.7111045416270076 0.9046021331639108 0  0.5648325677324502 0.6839788263505053 0  0.8528406028045645 1.34981040186971 0  0.3267770409027224 0.132697095936875 0  0.1076388888888889 0.4714357142901397 0  0.3382041166342574 1.081658831077011 0  0.1076388888888889 0.6501998017931964 0  0.336939857934855 0.8132790107187441 0  0.1011332895939513 1.219023349055124 0  0.125 1.5 0  0.6931369161911402 1.36521986327238 0  0.1365588450292398 0.9897040264351935 0  0.894494069564806 1.216506501440302 0  0.6979421995580001 1.109252308890989 0  0.09446486974618326 0.84375 0  0.09902460374277193 0.2762138187013033 0  0.125 0 0  0.6071738698977951 0.4679566139696874 0  0.5813302051929932 0.8909335347308536 0  0.625 1.5 0  0.375 0 0  0.625 0 0  0.375 1.5 0  0.5584367514675531 0.2421278281527754 0  0.6387003935341845 1.212373184211544 0  0.3328710821074091 0.5603208220109632 0  0.3153180866444988 1.324497199562409 0  0.8972507402571203 0.1205828398285865 0  0.09975763505918693 1.381411576627209 0  0 0.09375 0  0.7350129735776203 0.6400434648676359 0  0.7422852635504635 0.4126091899693546 0  0.6214948458131655 0.5829242348930104 0  1 1.03125 0  0.8890124857173596 1.103609493873653 0  0.9044064797420978 0.984375 0  1 1.40625 0  0.2797199589081234 0.2266099526777492 0  0.8900711714933843 0.5452652610665051 0  0.5625 1.41109097914689 0  0.5771873236231599 0.7871288709412081 0  0.4629026549700547 0.6444907857242902 0  0.4707400437282182 1.250208881978203 0  0.7058333555117404 1.007011474410331 0  0.1066894620250489 0.1057942827000653 0  1 0.46875 0  0.1982763988305144 0.8630217216098248 0  0.3044975612215005 0.3505765843315861 0  0.2069061551088731 0.4632480810527653 0  0.2874931823665684 1.167399315362542 0  0.09935994962464322 1.119528674539023 0  0.2492141102951399 1.035064639190217 0  0.205122617594694 0.659941527626889 0  0.4415991400932548 1.07680132097204 0  0.8117743143785759 0.747072581358216 0  0.1016887571701759 0.373897264393306 0  0.09702680527698024 0.7467009337141702 0  0.6010452452844874 1.117835782605109 0  0.4233035121279586 0.364751225851538 0  0.4766472437858406 0.4467080934398343 0  0.197279564587237 1.218109058319583 0  0.195059746179383 1.415138111800065 0  0 1.03125 0  0.7944556035490904 1.139555608059306 0  0.8055761514166343 0.9287957779324761 0  0.9062388969564916 0.7259203047394007 0  1 0.65625 0  0.3649860088942518 0.9061942891014568 0  0.1995363810916254 0.08160367156984571 0  0.1965803980221572 0.2701459083832078 0  0 1.40625 0  0 0.84375 0  1 1.21875 0  0 1.21875 0  0 0.65625 0  0 0.28125 0  0 0.46875 0  1 0.28125 0  1 0.84375 0  1 0.09375 0  0.3125 1.423354714264689 0  0.6268412953878431 0.3717181680448184 0  0.7615433983243373 0.825903799833412 0  0.4705652344209434 0.2810631566806679 0  0.5625 0.06789361001317526 0  0.7078132492706101 0.08659313238599885 0  0.6501203725378025 0.2255138941964173 0  0.7779397454165764 1.408827159833357 0  0.4315522809025895 0.7318943947551465 0  0.286317216273777 0.7349210370915314 0  0.8211202725831225 0.0722865889029191 0  0.4375 0.06664900101618589 0  0.1243605897128204 0.560817758041668 0  0.7866085586335239 0.332139889384601 0  0.7662549424564286 0.2427058610117072 0  0.659159990169629 0.8287497705297262 0  0.3483593364071734 0.993432677543493 0  0.6509085886397882 0.6658296393934026 0  0.4124441053099929 0.515233114904136 0  0.8028754864049193 0.5699563641282377 0  0.9215996629777032 0.8985267555153429 0  0.1031619230433501 0.1910177635643535 0  0.4913925974114119 0.9025644809929702 0  0.9134850293054187 0.207998342136356 0  0.9077744910208904 0.3628409084542325 0  0.5073237529117862 1.020678282061946 0  0.6422043910625934 0.9523960522754635 0  0.4262959153624687 1.160025134897262 0  0.1186193863525302 1.300371421298467 0  0.6869136722796675 1.281319123851258 0  0.2852224487244256 0.6309380475373765 0  0.769411549319536 1.320440919635272 0  0.8301007401272162 1.266244790593781 0  0.293556310603522 1.247338516073101 0  0.2730780899659728 0.5076456838120345 0  0.7861441654999169 0.4788595706924942 0  0.933575074144418 1.359375 0  0.5456577398776828 1.224827570074465 0  0.5120515366210536 0.742615568827279 0  0.5456340366652136 0.6068011890006753 0  0.9375 0 0  0.9375 1.5 0  0.0625 1.5 0  0.9258229832307951 0.6197874440682593 0  0.2572368960936686 0.8092393776273193 0  0.3949514126988875 0.6069406987765023 0  0.3935904649440892 0.1868580898902989 0  0.5484509287585916 0.1435408335427816 0  0.4055459348541232 1.292023678232858 0  0.4872066186725788 1.325889797190081 0  0.4824272183395438 1.421224744338607 0  0.3125 0 0  0.276862896774465 0.07301714364660816 0  0.8852507726194001 1.421758043009471 0  0.1356923565998962 0.9109068419226676 0  0.8359206433187577 0.2085989003292992 0  0.6400523637546643 1.422996511900554 0  0.2536444206305443 1.367768487210391 0  0.9379889569288455 0.796875 0  0.7009339319049021 0.1651763138542897 0  0.0625 0 0  0.5439726429482686 0.9556037949504178 0  0.2769742820335026 0.4253376293922818 0  0.9010156902763872 1.291502004430446 0  0.6238725401926793 0.2962900553556614 0  0.9232662345860678 0.4757317878179469 0  0.2576779263542928 0.1568193960467552 0  0.6299753347334723 1.327723632433931 0  0.1771892641088037 1.051369118277191 0  0.06033827779496215 0.984375 0  0.2085836912155759 0.9733995473482198 0  0.6708627004810417 0.4308432993753897 0  0.427122648600256 0.8672335748314701 0  0.6331482226038917 0.7380877030406653 0  0.3654072361857449 0.07162474056376941 0  0.05268336502195616 0.515625 0  0.09419984670660936 1.047808482710882 0  0.384135249980088 1.428745414879924 0  0.9361032827126627 1.157904634368841 0  0.302836848965532 0.8742633397401882 0  0.4067491503685943 0.7987473104598934 0  0.3558548039808351 0.7455279417485912 0  0.0513586807157099 0.421875 0  0.3564009008073318 1.154420385881018 0  0.05135471636603612 0.609375 0  0.7109426220682837 1.434854628179531 0  0.1515053667759731 0.7038577954180352 0  0.0647185119795106 0.9082444132931156 0  0.05231574802664123 1.170130306067141 0  0.1533427321388335 0.4196969330136291 0  0.264925340364291 1.102223647600234 0  0.1487373590638267 1.169239286396148 0  0.05044031767800948 1.265625 0  0.05193538697843247 0.326376151749627 0  0.9315471936344578 0.2743814833680878 0  0.6452586360535191 1.065735083574289 0  0.760558708222005 1.078669208125719 0  0.7323208318991764 1.168604417828729 0  0.6406868866636106 0.06789361001317526 0  0.5504433895064976 1.072865836307467 0  0.2464479713943203 0.3158503212325262 0  0.05304724389930324 0.1462586894629701 0  0.4375 1.5 0  0.8125 1.5 0  0.1415766928653409 0.7964353259647637 0  0.04723243487309163 0.796875 0  0.05015277067787238 0.23114200190218 0  0.1506041286950854 0.3182225573540559 0  0.04697566456143813 0.703125 0  0.932214461466593 1.048576184124524 0  0.5378954820998444 0.4819963842625978 0  0.7888237271674655 0.6824915590223776 0  0.8140766721389939 1.202394175153234 0  0.5835389593800279 0.5292764624073397 0  0.5373696378449176 0.8407030129848175 0  0.5744937832819315 0.4111492105904384 0  0.653327160816024 0.5205832743260757 0  0.4540565422956371 0.2160018780190284 0  0.8687188106443969 0.7798704687191439 0  0.6916734339165079 0.3693981866845503 0  0.6875 0 0  0.4051686358248369 0.1229632202914007 0  0.1605015840761855 0.6138342388486999 0  0.1706587470506019 0.5162844698625134 0  0.8684032554285257 1.042957182979488 0  0.8406629733206215 0.3732562547250589 0  0.938199208823281 0.06724219411781264 0  0.6794951645420886 0.6090169936860423 0  0.7478065150288655 0.9578315764456105 0  0.9478315426308785 0.4148523627247288 0  0.3105662054292678 0.2849041205875215 0  0.5598632575771201 0.3070134556448483 0  0.5917183757337765 0.188957524089563 0  0.5151693044923682 0.1967111376059941 0  0.3881861199667486 1.042714448240003 0  0.4997671638927392 0.09065576881037679 0  0.6875 1.5 0  0.4375 0 0  0.8125 0 0  0.5625 0 0  0.3125 1.5 0  0.1875 0 0  0.1875 1.5 0  0.5625 1.5 0  0.3521580210018756 1.375016303292267 0  0.6503109227181111 0.8905219994823097 0  0.05988857758114403 1.434032614945904 0  0.8545428057905027 1.155276221253479 0  0.452695441336405 0.58270404912677 0  0.8447799231201838 0.5016201263355714 0  0.946563782798248 1.249759823079916 0  1 0.140625 0  0.8367884202315332 0.1317397455719299 0  0.1454756991922557 0.2357711058119354 0  0.4153218743225581 0.4535899532423587 0  0 1.078125 0  1 0.328125 0  0.8238075538842757 1.085
[...]
<PointData  Vectors="velocity"> 
<DataArray  type="Float64"  Name="velocity"  NumberOfComponents="3" format="ascii">5.5586537163563678e-21 2.5940384009663050e-20 0.0000000000000000e+00  -4.1689902872672760e-21 1.2837843106823039e-20 0.0000000000000000e+00  -2.7417182914926536e-22 -2.7882332823237951e-22 0.0000000000000000e+00  6.9350822556446117e-20 -8.6820877093566122e-20 0.0000000000000000e+00  -2.0998930892398295e-21 -1.3618506648083373e-19 0.0000000000000000e+00  -6.7624453843724509e-10 1.9170755984909673e-05 0.0000000000000000e+00  -1.6501682062747710e-19 3.4946744037843806e-21 0.0000000000000000e+00  8.3684002859598322e-19 3.4966411523383581e-20 0.0000000000000000e+00  1.4293461145588827e-05 5.3483331037068169e-05 0.0000000000000000e+00  7.6942935657505131e-06 5.0420864261106395e-05 0.0000000000000000e+00  -1.0629838448650383e-09 2.3189063228002350e-05 0.0000000000000000e+00  -1.6251760332660805e-21 -7.3649595958416593e-20 0.0000000000000000e+00  -7.1177953597849841e-10 3.1844030789673500e-05 0.0000000000000000e+00  -7.2088826662368464e-21 -3.0272881642781238e-19 0.0000000000000000e+00  -9.5953289969433842e-07 3.0762060553684084e-05 0.0000000000000000e+00  -1.4340867788100504e-19 1.2413870623435157e-20 0.0000000000000000e+00  3.9334669495536243e-19 4.0154523572173279e-20 0.0000000000000000e+00  1.1139824350820801e-18 2.6165845595269447e-20 0.0000000000000000e+00  -1.4356172074821841e-19 -6.6289307179083819e-21 0.0000000000000000e+00  -5.6554978276626815e-06 5.8121994238271432e-05 0.0000000000000000e+00  -1.6967215518852922e-05 -1.5290831422007604e-05 0.0000000000000000e+00  -3.4068130810983697e-07 3.3232237445804870e-05 0.0000000000000000e+00  4.3525780546545124e-06 2.3458136687031747e-05 0.0000000000000000e+00  -4.6525102233750783e-06 1.3266610010928655e-05 0.0000000000000000e+00  7.7887091576569805e-06 2.6505657194274909e-05 0.0000000000000000e+00  -2.1980629883249641e-21 -1.2669317272465818e-19 0.0000000000000000e+00  -2.7108759419277924e-21 -1.8832040517740344e-19 0.0000000000000000e+00  -1.6562559631407652e-06 5.5573300373102196e-05 0.0000000000000000e+00  -3.3077876825981977e-09 3.3837031475660485e-05 0.0000000000000000e+00  -6.3897344781893315e-10 2.4478999685358919e-05 0.0000000000000000e+00  -6.9580202371775853e-06 -7.0402724570439581e-06 0.0000000000000000e+00  -2.0523454446792809e-21 -3.7311541651275789e-20 0.0000000000000000e+00  -4.3688723485625526e-06 -2.6551691946424478e-05 0.0000000000000000e+00  1.7404215829132288e-05 5.2905358555359973e-05 0.0000000000000000e+00  5.4769350610549496e-06 3.7934291003685429e-05 0.0000000000000000e+00  -8.0988365538910912e-07 2.6220999884711364e-05 0.0000000000000000e+00  -1.5189637620797073e-06 2.8671857314245234e-05 0.0000000000000000e+00  -2.7981930197911499e-06 2.1723095072044664e-05 0.0000000000000000e+00  -9.5766165726652059e-10 1.9525782324728925e-05 0.0000000000000000e+00  -1.4868858153306244e-09 2.1515897074622868e-05 0.0000000000000000e+00  -1.9558354568446579e-20 -4.0628516946310328e-19 0.0000000000000000e+00  -1.7640216239504778e-05 5.2209434134857215e-05 0.0000000000000000e+00  -6.1131424634261206e-05 -1.4411358329441864e-06 0.0000000000000000e+00  7.1810236223068630e-08 4.1003370871532209e-05 0.0000000000000000e+00  2.7388339524677669e-05 5.8828642665741987e-05 0.0000000000000000e+00  -7.6004969896556148e-06 -6.5553373481506166e-05 0.0000000000000000e+00  -7.8271634101640705e-06 -6.0462252980265769e-05 0.0000000000000000e+00  2.1932192454942567e-06 4.7538447428317382e-05 0.0000000000000000e+00  7.7158904520511631e-06 3.3764555134884944e-05 0.0000000000000000e+00  -1.1113986173728860e-05 -4.2475818615884493e-05 0.0000000000000000e+00  -8.0779064115213850e-06 -5.3718732466603107e-05 0.0000000000000000e+00  -4.1138208773932426e-20 -7.5175391579258321e-21 0.0000000000000000e+00  1.2329409691395900e-18 -1.7382158410610059e-20 0.0000000000000000e+00  4.0690565514070376e-06 3.1600757391077002e-05 0.0000000000000000e+00  -3.3299917339305328e-05 -2.4104578781454175e-05 0.0000000000000000e+00  6.3246275342088602e-06 4.4750708202352743e-05 0.0000000000000000e+00  -6.3044462177074608e-05 2.4614536052185945e-05 0.0000000000000000e+00  3.1671160490600495e-07 1.8863028964978035e-05 0.0000000000000000e+00  -2.8007436060477240e-07 5.4837652534100190e-05 0.0000000000000000e+00  5.1664094403727738e-06 4.0812940477740986e-06 0.0000000000000000e+00  -5.4318073138336944e-05 3.4166690327116547e-05 0.0000000000000000e+00  4.3788850843248179e-06 2.1863533328247387e-05 0.0000000000000000e+00  8.9542160312147972e-07 3.4636813435843611e-05 0.0000000000000000e+00  -7.0245648068420055e-07 1.6713183933873484e-05 0.0000000000000000e+00  -3.5544219654829462e-06 3.6911885698136163e-05 0.0000000000000000e+00  -6.0929048659028989e-07 2.5145421161701479e-05 0.0000000000000000e+00  1.8194901604948102e-19 3.7949976116333955e-20 0.0000000000000000e+00  1.7366087979767829e-05 3.3457902202601447e-05 0.0000000000000000e+00  -4.6283006309276661e-07 2.3765394157125572e-05 0.0000000000000000e+00  -1.8505086484841888e-05 -8.3931670384348816e-05 0.0000000000000000e+00  7.7894718382084949e-06 3.4984076299755314e-05 0.0000000000000000e+00  -7.0021195642714331e-07 2.1308272530450742e-05 0.0000000000000000e+00  3.5714583724774151e-06 4.8532159741839780e-05 0.0000000000000000e+00  -6.5575527845363100e-20 1.2029716423696435e-20 0.0000000000000000e+00  4.8297912250037521e-06 2.8517234944138199e-05 0.0000000000000000e+00  2.6612299904662664e-06 5.3896628278142816e-05 0.0000000000000000e+00  8.9387190985706727e-19 3.0064018154620641e-20 0.0000000000000000e+00  -1.4458175260333941e-19 6.0576440278474928e-21 0.0000000000000000e+00  -1.7260756595469947e-19 2.2902606640254410e-22 0.0000000000000000e+00  4.9196668342724466e-19 2.5302375277902392e-20 0.0000000000000000e+00  -2.7076136038999967e-05 1.5876983607296159e-05 0.0000000000000000e+00  1.0093798854313090e-05 4.2878176336986203e-05 0.0000000000000000e+00  1.2458051759853041e-05 4.3782979164852513e-05 0.0000000000000000e+00  -1.8066049672532458e-06 3.0584823420273966e-05 0.0000000000000000e+00  -1.0510306813865712e-05 -1.6072978558429588e-05 0.0000000000000000e+00  1.5274750971010828e-06 2.6743499342033032e-05 0.0000000000000000e+00  -1.5388345979372098e-09 1.8101958059654598e-05 0.0000000000000000e+00  -7.3570609388098158e-06 -6.8053537638562201e-06 0.0000000000000000e+00  -1.0054598377890109e-05 -2.2834966585708261e-05 0.0000000000000000e+00  2.9140590739391502e-07 3.7337418278862682e-05 0.0000000000000000e+00  -2.0827037721504171e-21 -1.5691402090504629e-19 0.0000000000000000e+00  -1.0430549100348690e-05 -8.3850393881487409e-05 0.0000000000000000e+00  -6.4685048903918219e-06 -8.4050391070332066e-05 0.0000000000000000e+00  -4.9795192690770550e-21 -7.1493598238894154e-19 0.0000000000000000e+00  -1.3983976922681788e-05 6.1517014317555077e-05 0.0000000000000000e+00  -5.4290653282558233e-06 -5.9145938090587974e-05 0.0000000000000000e+00  3.6357617537929007e-05 2.9035913003037423e-05 0.0000000000000000e+00  -1.0473892368898658e-06 5.5096019307380899e-05 0.0000000000000000e+00  4.8496507432528309e-06 5.5707339687022638e-05 0.0000000000000000e+00  2.3604555768709861e-06 3.7526811039759216e-05 0.0000000000000000e+00  4.2585888969200622e-06 2.7186620188163527e-05 0.0000000000000000e+00  -1.5688409386676753e-05 2.8851242210907007e-05 0.0000000000000000e+00  -1.5159733331205893e-21 -8.4270062007564445e-20 0.0000000000000000e+00  -1.6855053279447458e-06 2.4747946094826870e-05 0.0000000000000000e+00  2.1532428942032850e-05 6.5909575708097346e-05 0.0000000000000000e+00  1.3706239867766082e-05 3.4718175837600267e-05 0.0000000000000000e+00  -7.9989262062796511e-07 2.9830188921364444e-05 0.0000000000000000e+00  -4.9947155778299619e-07 2.3913687203771088e-05 0.0000000000000000e+00  -2.6573997905355765e-07 2.8724421847320884e-05 0.0000000000000000e+00  -1.8158557716775777e-06 1.9829026170873614e-05 0.0000000000000000e+00  4.0122380147372409e-06 4.4009806533486744e-05 0.0000000000000000e+00  -8.1140088854965482e-06 -4.5864842940054265e-05 0.0000000000000000e+00  6.5090509563853725e-06 3.4785291241490444e-05 0.0000000000000000e+00  -1.0062787567649716e-06 1.9189198526531869e-05 0.0000000000000000e+00  9.4051526605827332e-06 4.7533178069110096e-05 0.0000000000000000e+00  1.8574431086554476e-05 5.5401984265137276e-05 0.0000000000000000e+00  2.1253457920095941e-05 5.0735413848848862e-05 0.0000000000000000e+00  -1.3904442666358104e-06 2.6983982535031907e-05 0.0000000000000000e+00  1.1359675593977296e-05 2.6612158011914034e-05 0.0000000000000000e+00  -2.0508635745083114e-09 2.2346926465881855e-05 0.0000000000000000e+00  -7.8500224543370595e-07 -3.4763998696253108e-06 0.0000000000000000e+00  -5.6713761648865038e-06 -3.4195071288957458e-05 0.0000000000000000e+00  -4.8842371874043016e-06 -6.7947409276661232e-05 0.0000000000000000e+00  -1.2409064666702123e-21 -1.0778774954790118e-19 0.0000000000000000e+00  -1.1620790368499561e-06 4.0717492633736894e-05 0.0000000000000000e+00  -3.5587121849218076e-05 1.9606303431432519e-05 0.0000000000000000e+00  5.6789253722907086e-06 6.3529932192533215e-05 0.0000000000000000e+00  -2.2363980681379020e-09 2.0784980972146090e-05 0.0000000000000000e+00  -1.5587710778826747e-09 2.0461388508161090e-05 0.0000000000000000e+00  -8.4667241981402158e-21 -2.4224792058678829e-19 0.0000000000000000e+00  -5.5059145088801220e-10 2.4082713021016651e-05 0.0000000000000000e+00  -6.7019322955672710e-10 1.8339342286238285e-05 0.0000000000000000e+00  -3.4616074682055041e-09 3.7384942945450210e-05 0.0000000000000000e+00  -1.0169020088612754e-09 2.4273815621052142e-05 0.0000000000000000e+00  -1.7048089887751934e-21 -5.3963435931153667e-20 0.0000000000000000e+00  -2.8638691461907144e-21 -1.9798471078817980e-19 0.0000000000000000e+00  -1.8614636063103066e-21 -1.1805314470438817e-20 0.0000000000000000e+00  2.5885845882925974e-05 2.5969750312080182e-05 0.0000000000000000e+00  -2.8156478086326591e-06 1.1387270110821403e-05 0.0000000000000000e+00  -5.1431658974110596e-06 -1.2963213483487033e-05 0.0000000000000000e+00  -8.7361337086831405e-06 3.9892364797064372e-05 0.0000000000000000e+00  -7.0164988038509544e-05 4.0151747794638312e-06 0.0000000000000000e+00  -5.3796611774676597e-05 -8.0032328849419567e-06 0.0000000000000000e+00  -3.2595865984592597e-05 -6.4763702715253643e-06 0.0000000000000000e+00  5.1918886987967815e-05 2.6369653633362548e-05 0.0000000000000000e+00  -1.6110093712729222e-06 5.1463046851752599e-05 0.0000000000000000e+00  -3.6626144818736228e-06 2.9191336341885511e-05 0.0000000000000000e+00  -2.6092752100454571e-05 -1.0158938511126100e-05 0.0000000000000000e+00  -6.6972282192246765e-05 9.8140380464431301e-06 0.0000000000000000e+00  1.4302673522242342e-06 1.6667557345731421e-05 0.0000000000000000e+00  -1.4638055386019889e-05 -3.8594391601278053e-05 0.0000000000000000e+00  -2.3676984729877008e-05 -3.1830168666667430e-05 0.0000000000000000e+00  -5.2860659857070699e-07 3.6362168123116044e-05 0.0000000000000000e+00  6.2484782399280221e-07 3.7600064226114091e-05 0.0000000000000000e+00  -3.5593961834875860e-06 3.3711609191472125e-05 0.0000000000000000e+00  2.1397395867654167e-05 5.5805590268568180e-05 0.0000000000000000e+00  -8.8697565764432551e-06 -4.3282472774607450e-05 0.0000000000000000e+00  -4.4720863849865694e-06 -7.5845316978474911e-05 0.0000000000000000e+00  -5.1303176141534006e-06 4.9040491448791755e-05 0.0000000000000000e+00  1.3230599449518131e-06 5.4764965565539917e-05 0.0000000000000000e+00  -6.4313438287908127e-06 -2.6386345154134157e-05 0.0000000000000000e+00  -5.0071663816503451e-06 -4.3385384724880641e-05 0.0000000000000000e+00  5.6877157165511826e-06 5.1272484569752189e-05 0.0000000000000000e+00  5.0238897958847926e-06 4.3631232183039962e-05 0.0000000000000000e+00  2.7135698366888241e-06 3.8969028663509892e-05 0.0000000000000000e+00  -6.4710026223379212e-07 2.6791595666264243e-05 0.0000000000000000e+00  1.0978950542660456e-05 3.7897215957804279e-05 0.0000000000000000e+00  1.2811575304671948e-06 3.0089237481148004e-05 0.0000000000000000e+00  1.1341129944888241e-05 2.9173331344247738e-05 0.0000000000000000e+00  -2.7883436372252174e-06 -2.7426377880215321e-06 0.0000000000000000e+00  -1.7952663431451086e-06 2.9813512367345929e-05 0.0000000000000000e+00  1.5386763076536053e-05 3.9673243384380539e-05 0.0000000000000000e+00  -9.5049444045327236e-06 -3.7453021170198483e-05 0.0000000000000000e+00  -1.9952393851429688e-05 -1.2052535827547578e-04 0.0000000000000000e+00  6.4916690072119852e-06 4.2171186589150062e-05 0.0000000000000000e+00  -1.1790233127589224e-06 5.8157280972770501e-05 0.0000000000000000e+00  5.1390936687043824e-06 5.3299525102183516e-05 0.0000000000000000e+00  -8.2894365304510124e-21 -3.5300153334147118e-21 0.0000000000000000e+00  9.3721863484844872e-19 -1.1637882784172635e-19 0.0000000000000000e+00  1.0850953894780533e-19 3.4951116810002330e-20 0.0000000000000000e+00  -3.1400434802299565e-06 -5.5004350655413598e-05 0.0000000000000000e+00  -3.2412331193794364e-06 2.7550730084979054e-05 0.0000000000000000e+00  8.6046709119461951e-06 4.9816684733889400e-05 0.0000000000000000e+00  -4.3850153988978343e-05 4.2696729278759532e-05 0.0000000000000000e+00  -6.4990094886641621e-05 1.1469826399502738e-05 0.0000000000000000e+00  -7.8277853962565466e-07 3.3217184097738150e-05 0.0000000000000000e+00  2.0329879850906175e-06 3.4673933901468716e-05 0.0000000000000000e+00  4.0239783441147553e-05 2.6985324740393494e-05 0.0000000000000000e+00  -1.4372523537099288e-19 8.0416545381902491e-21 0.0000000000000000e+00  -4.8453675462508075e-05 1.4978942729300959e-05 0.0000000000000000e+00  7.3251656298455706e-05 -1.0619695664751475e-05 0.0000000000000000e+00  -7.1254054356157243e-07 2.3131203057493033e-05 0.0000000000000000e+00  -1.8112460620497127e-05 -3.4806765013816305e-05 0.0000000000000000e+00  6.0228060338899838e-05 2.6870590421418897e-05 0.0000000000000000e+00  1.0602677949369447e-06 2.9765193453696822e-05 0.0000000000000000e+00  -2.8194682718457396e-06 -6.1001942362027382e-05 0.0000000000000000e+00  -4.4047207623213286e-05 -1.5651552123723260e-05 0.0000000000000000e+00  -3.5131763872719952e-20 1.1937035791007055e-20 0.0000000000000000e+00  4.7164539465369394e-06 5.4500802912112085e-05 0.0000000000000000e+00  2.4370484017702978e-05 5.4287433669767608e-05 0.0000000000000000e+00  -2.3716137988901157e-05 -7.8112249447064174e-05 0.0000000000000000e+00  -1.4525000071169400e-05 4.2297373274394440e-06 0.0000000000000000e+00  -3.2014720089207666e-06 -4.6809985371986282e-05 0.0000000000000000e+00  -3.5600387166999542e-05 4.5151450228796080e-05 0.0000000000000000e+00  9.3683749961309008e-06 3.6968332442809164e-05 0.0000000000000000e+00  -5.2247787445281192e-07 2.5269023398866898e-05 0.0000000000000000e+00  -2.4313160169200111e-07 2.2309677347232901e-05 0.0000000000000000e+00  -5.9664439456506884e-07 2.6469268426603543e-05 0.0000000000000000e+00  -3.8031456712016978e-06 5.2232732701055939e-06 0.0000000000000000e+00  -1.3658740997874004e-06 4.9237745042244773e-05 0.0000000000000000e+00  -2.6234863980781252e-06 4.2540277051554444e-05 0.0000000000000000e+00  -6.1042352693203435e-05 1.3025195094932983e-05 0.0000000000000000e+00  1.2617782854911419e-06 1.9651294807158413e-05 0.0000000000000000e+00  -3.7289047197588711e-07 2.3230610915160300e-05 0.0000000000000000e+00  3.8592427991717234e-05 2.5118742449481610e-05 0.0000000000000000e+00  -9.3805715414088404e-06 -9.7288652380865835e-05 0.0000000000000000e+00  -2.2928971813704612e-06 3.3259308518215195e-05 0.0000000000000000e+00  -3.0212259742109095e-06 4.7219175542441175e-05 0.0000000000000000e+00  -3.3162560951203659e-06 3.9562998726269822e-05 0.0000000000000000e+00  2.2878711785185798e-06 2.6522917026888820e-05 0.0000000000000000e+00  5.9830775082563944e-07 3.4125556801783387e-05 0.0000000000000000e+00  1.7010558699791700e-07 1.7558621475302068e-05 0.0000000000000000e+00  9.1554305243045288e-05 2.3406232815916379e-05 0.0000000000000000e+00  -1.9297149023889520e-06 1.8403980887186108e-05 0.0000000000000000e+00  -3.3109808772884362e-07 2.1710137903298634e-05 0.0000000000000000e+00  -2.6724158875473997e-07 2.3895536271342919e-05 0.0000000000000000e+00  1.0828240005219734e-05 3.3649940085900763e-05 0.0000000000000000e+00  -3.7035628960054824e-07 2.9168551484262691e-05 0.0000000000000000e+00  -8.7552115935221802e-07 2.5318025178733787e-05 0.0000000000000000e+00  -1.8085451868378832e-07 2.4883427089708738e-05 0.0000000000000000e+00  2.1781030005697849e-06 3.6668579072457007e-05 0.0000000000000000e+00  -3.6395714269889683e-06 -2.8781239737596939e-05 0.0000000000000000e+00  8.5684221009653763e-06 4.4232562663664392e-05 0.0000000000000000e+00  1.7368307487973909e-06 9.0358183169989550e-06 0.0000000000000000e+00  7.3093838960449926e-06 2.8807200584334723e-05 0.0000000000000000e+00  -6.3101375151426245e-05 -1.1836991408741520e-06 0.0000000000000000e+00  7.9005422303035742e-06 5.0095577937157638e-05 0.0000000000000000e+00  1.5096662539951982e-05 6.5754241353245543e-05 0.0000000000000000e+00  -4.7038716114528412e-06 3.4284363516591292e-05 0.0000000000000000e+00  7.1045169515648075e-19 4.1120033253494028e-20 0.0000000000000000e+00  1.1913544628770888e-18 2.2761363405086560e-20 0.0000000000000000e+00  -1.5671249010178447e-06 2.1088236030858431e-05 0.0000000000000000e+00  -3.6256545668414844e-07 2.0022805798976805e-05 0.0000000000000000e+00  -5.0644580128362978e-07 4.1943069381303208e-05 0.0000000000000000e+00  1.0442497148822554e-05 5.2357976110483139e-05 0.0000000000000000e+00  -3.0120425508713322e-07 1.8428618959757817e-05 0.0000000000000000e+00  -5.1877981953290740e-06 -8.4405936751445431e-05 0.0000000000000000e+00  1.3860864540751986e-05 4.4200616357233044e-05 0.0000000000000000e+00  -8.3856776426432352e-06 -3.4900249469326268e-05 0.0000000000000000e+00  -2.2654834510490741e-06 -6.1246600510831160e-06 0.0000000000000000e+00  6.5170218619917003e-06 4.0998883237854764e-05 0.0000000000000000e+00  8.5185939420115209e-08 5.7440203176730688e-05 0.0000000000000000e+00  7.3424859665873400e-06 2.8994687893931356e-05 0.0000000000000000e+00  -1.1493344879970270e-06 2.1274886367427589e-05 0.0000000000000000e+00  -3.4781514921564275e-05 3.6988504708922027e-05 0.0000000000000000e+00  -7.1952902280201789e-06 -6.9618091657612012e-05 0.0000000000000000e+00  -9.4359788407782973e-06 -8.1341798528083584e-06 0.0000000000000000e+00  -1.8047513810050196e-19 -3.0598585213888792e-21 0.0000000000000000e+00  -6.6949654047471495e-05 2.6182208424181876e-05 0.0000000000000000e+00  -2.4248229680293991e-07 1.6974013927138428e-05 0.0000000000000000e+00  5.6638090944123391e-06 2.1991714859564146e-05 0.0000000000000000e+00  -8.5201986689955983e-06 -7.1785389125426195e-05 0.0000000000000000e+00  -1.0229964630206445e-05 -4.9220359760969726e-05 0.0000000000000000e+00  -3.6044139042034452e-06 -4.3831563560851297e-06 0.0000000000000000e+00  -4.6571242660303793e-06 1.8799962182762438e-05 0.0000000000000000e+00  -5.0816891286573390e-07 4.5310489368157359e-06 0.0000000000000000e+00  -1.7445024163718967e-06 -3.2524911295737787e-05 0.0000000000000000e+00  4.5584485060142122e-06 6.6251270021123855e-05 0.0000000000000000e+00  -7.2648588109169631e-06 2.0917455401703808e-05 0.0000000000000000e+00  -4.6355116592911831e-05 5.4149609670096979e-06 0.0000000000000000e+00  -4.4815031044869248e-05 2.2172018132978474e-05 0.0000000000000000e+00  2.1008925582788237e-06 4.0380013739005921e-05 0.0000000000000000e+00  -7.5273179982799114e-05 1.1318776638805222e-05 0.0000000000000000e+00  9.0671036958214981e-19 2.2152582893200252e-20 0.0000000000000000e+00  -1.4718182725724040e-19 4.5827862921045485e-21 0.0000000000000000e+00  -8.3398396733294209e-20 -6.6128013098062024e-21 0.0000000000000000e+00  -1.6275685559745802e-19 2.1237464307754011e-21 0.0000000000000000e+00  5.4990079369829279e-19 4.1962421494041011e-20 0.0000000000000000e+00  -1.0174981320657613e-19 1.1545640212153965e-20 0.0000000000000000e+00  2.8164094995745660e-19 3.4547738341772084e-20 0.0000000000000000e+00  7.5821047225269349e-19 2.55