<?xml version="1.0"?>
<VTKFile type="UnstructuredGrid"  version="0.1"  >
<UnstructuredGrid>
<Piece  NumberOfPoints="3656" NumberOfCells="7102">
<Points>
<DataArray  type="Float64"  NumberOfComponents="3"  format="ascii">0 1.5 0  0 0 0  1 0 0  1 1.5 0  1 0.75 0  0 0.75 0  0.5 0 0  0.5 1.5 0  0.5 0.5416666666666666 0  0.59375 1.020833333333333 0  0 1.125 0  1 0.375 0  0 0.375 0  1 1.125 0  0.2731176900584795 0.9375 0  0.25 0 0  0.25 1.5 0  0.75 1.5 0  0.75 0 0  0.375 0.2708333333333333 0  0.6988636363636365 0.3049242424242424 0  0.3700070004780415 1.223207014835696 0  0.2152777777777777 0.5625 0  0.7065972222222222 0.75 0  0.755816605839416 1.233044403892944 0  1 0.5625 0  1 0.9375 0  0.4765968975134545 0.8130930360009764 0  0 0.1875 0  0 1.3125 0  0.7230200520905139 0.5271095710287589 0  1 0.1875 0  0.8065456944857283 1.026311302284592 0  0.1989025394349107 0.3639658086323453 0  0.5610173837837786 1.302422373569134 0  0.1988404478013009 1.121971106571974 0  0.2006684233786157 1.314199941127089 0  0.1957945014059158 0.7574657032602902 0  0 0.5625 0  0 0.9375 0  1 1.3125 0  0.1872585396626935 0.1767613862169247 0  0.625 0.1357872200263505 0  0.3579988607705369 0.6752187279071372 0  0.3542598645682629 0.4446685240454171 0  0.853298611111111 0.84375 0  0.8482748428980986 0.6483887330740823 0  0.434904292337043 0.9735089916632877 0  0.5289127981947132 0.3640594777562862 0  0.8630943872689156 0.28125 0  0.8552158854975975 0.4395936347844487 0  0.875 0 0  0.875 1.5 0  0.4220125097984837 1.367704593444736 0  0.7786805222289445 0.1518305613433982 0  0.5106912476792917 1.15387535648223 0  0.4719018575171832 0.1512944470592127 0  0.7111045416270076 0.9046021331639108 0  0.5648325677324502 0.6839788263505053 0  0.8528406028045645 1.34981040186971 0  0.3267770409027224 0.132697095936875 0  0.1076388888888889 0.4714357142901397 0  0.3382041166342574 1.081658831077011 0  0.1076388888888889 0.6501998017931964 0  0.336939857934855 0.8132790107187441 0  0.1011332895939513 1.219023349055124 0  0.125 1.5 0  0.6931369161911402 1.36521986327238 0  0.1365588450292398 0.9897040264351935 0  0.894494069564806 1.216506501440302 0  0.6979421995580001 1.109252308890989 0  0.09446486974618326 0.84375 0  0.09902460374277193 0.2762138187013033 0  0.125 0 0  0.6071738698977951 0.4679566139696874 0  0.5813302051929932 0.8909335347308536 0  0.625 1.5 0  0.375 0 0  0.625 0 0  0.375 1.5 0  0.5584367514675531 0.2421278281527754 0  0.6387003935341845 1.212373184211544 0  0.3328710821074091 0.5603208220109632 0  0.3153180866444988 1.324497199562409 0  0.8972507402571203 0.1205828398285865 0  0.09975763505918693 1.381411576627209 0  0 0.09375 0  0.7350129735776203 0.6400434648676359 0  0.7422852635504635 0.4126091899693546 0  0.6214948458131655 0.5829242348930104 0  1 1.03125 0  0.8890124857173596 1.103609493873653 0  0.9044064797420978 0.984375 0  1 1.40625 0  0.2797199589081234 0.2266099526777492 0  0.8900711714933843 0.5452652610665051 0  0.5625 1.41109097914689 0  0.5771873236231599 0.7871288709412081 0  0.4629026549700547 0.6444907857242902 0  0.4707400437282182 1.250208881978203 0  0.7058333555117404 1.007011474410331 0  0.1066894620250489 0.1057942827000653 0  1 0.46875 0  0.1982763988305144 0.8630217216098248 0  0.3044975612215005 0.3505765843315861 0  0.2069061551088731 0.4632480810527653 0  0.2874931823665684 1.167399315362542 0  0.09935994962464322 1.119528674539023 0  0.2492141102951399 1.035064639190217 0  0.205122617594694 0.659941527626889 0  0.4415991400932548 1.07680132097204 0  0.8117743143785759 0.747072581358216 0  0.1016887571701759 0.373897264393306 0  0.09702680527698024 0.7467009337141702 0  0.6010452452844874 1.117835782605109 0  0.4233035121279586 0.364751225851538 0  0.4766472437858406 0.4467080934398343 0  0.197279564587237 1.218109058319583 0  0.195059746179383 1.415138111800065 0  0 1.03125 0  0.7944556035490904 1.139555608059306 0  0.8055761514166343 0.9287957779324761 0  0.9062388969564916 0.7259203047394007 0  1 0.65625 0  0.3649860088942518 0.9061942891014568 0  0.1995363810916254 0.08160367156984571 0  0.1965803980221572 0.2701459083832078 0  0 1.40625 0  0 0.84375 0  1 1.21875 0  0 1.21875 0  0 0.65625 0  0 0.28125 0  0 0.46875 0  1 0.28125 0  1 0.84375 0  1 0.09375 0  0.3125 1.423354714264689 0  0.6268412953878431 0.3717181680448184 0  0.7615433983243373 0.825903799833412 0  0.4705652344209434 0.2810631566806679 0  0.5625 0.06789361001317526 0  0.7078132492706101 0.08659313238599885 0  0.6501203725378025 0.2255138941964173 0  0.7779397454165764 1.408827159833357 0  0.4315522809025895 0.7318943947551465 0  0.286317216273777 0.7349210370915314 0  0.8211202725831225 0.0722865889029191 0  0.4375 0.06664900101618589 0  0.1243605897128204 0.560817758041668 0  0.7866085586335239 0.332139889384601 0  0.7662549424564286 0.2427058610117072 0  0.659159990169629 0.8287497705297262 0  0.3483593364071734 0.993432677543493 0  0.6509085886397882 0.6658296393934026 0  0.4124441053099929 0.515233114904136 0  0.8028754864049193 0.5699563641282377 0  0.9215996629777032 0.8985267555153429 0  0.1031619230433501 0.1910177635643535 0  0.4913925974114119 0.9025644809929702 0  0.9134850293054187 0.207998342136356 0  0.9077744910208904 0.3628409084542325 0  0.5073237529117862 1.020678282061946 0  0.6422043910625934 0.9523960522754635 0  0.4262959153624687 1.160025134897262 0  0.1186193863525302 1.300371421298467 0  0.6869136722796675 1.281319123851258 0  0.2852224487244256 0.6309380475373765 0  0.769411549319536 1.320440919635272 0  0.8301007401272162 1.266244790593781 0  0.293556310603522 1.247338516073101 0  0.2730780899659728 0.5076456838120345 0  0.7861441654999169 0.4788595706924942 0  0.933575074144418 1.359375 0  0.5456577398776828 1.224827570074465 0  0.5120515366210536 0.742615568827279 0  0.5456340366652136 0.6068011890006753 0  0.9375 0 0  0.9375 1.5 0  0.0625 1.5 0  0.9258229832307951 0.6197874440682593 0  0.2572368960936686 0.8092393776273193 0  0.3949514126988875 0.6069406987765023 0  0.3935904649440892 0.1868580898902989 0  0.5484509287585916 0.1435408335427816 0  0.4055459348541232 1.292023678232858 0  0.4872066186725788 1.325889797190081 0  0.4824272183395438 1.421224744338607 0  0.3125 0 0  0.276862896774465 0.07301714364660816 0  0.8852507726194001 1.421758043009471 0  0.1356923565998962 0.9109068419226676 0  0.8359206433187577 0.2085989003292992 0  0.6400523637546643 1.422996511900554 0  0.2536444206305443 1.367768487210391 0  0.9379889569288455 0.796875 0  0.7009339319049021 0.1651763138542897 0  0.0625 0 0  0.5439726429482686 0.9556037949504178 0  0.2769742820335026 0.4253376293922818 0  0.9010156902763872 1.291502004430446 0  0.6238725401926793 0.2962900553556614 0  0.9232662345860678 0.4757317878179469 0  0.2576779263542928 0.1568193960467552 0  0.6299753347334723 1.327723632433931 0  0.1771892641088037 1.051369118277191 0  0.06033827779496215 0.984375 0  0.2085836912155759 0.9733995473482198 0  0.6708627004810417 0.4308432993753897 0  0.427122648600256 0.8672335748314701 0  0.6331482226038917 0.7380877030406653 0  0.3654072361857449 0.07162474056376941 0  0.05268336502195616 0.515625 0  0.09419984670660936 1.047808482710882 0  0.384135249980088 1.428745414879924 0  0.9361032827126627 1.157904634368841 0  0.302836848965532 0.8742633397401882 0  0.4067491503685943 0.7987473104598934 0  0.3558548039808351 0.7455279417485912 0  0.0513586807157099 0.421875 0  0.3564009008073318 1.154420385881018 0  0.05135471636603612 0.609375 0  0.7109426220682837 1.434854628179531 0  0.1515053667759731 0.7038577954180352 0  0.0647185119795106 0.9082444132931156 0  0.05231574802664123 1.170130306067141 0  0.1533427321388335 0.4196969330136291 0  0.264925340364291 1.102223647600234 0  0.1487373590638267 1.169239286396148 0  0.05044031767800948 1.265625 0  0.05193538697843247 0.326376151749627 0  0.9315471936344578 0.2743814833680878 0  0.6452586360535191 1.065735083574289 0  0.760558708222005 1.078669208125719 0  0.7323208318991764 1.168604417828729 0  0.6406868866636106 0.06789361001317526 0  0.5504433895064976 1.072865836307467 0  0.2464479713943203 0.3158503212325262 0  0.05304724389930324 0.1462586894629701 0  0.4375 1.5 0  0.8125 1.5 0  0.1415766928653409 0.7964353259647637 0  0.04723243487309163 0.796875 0  0.05015277067787238 0.23114200190218 0  0.1506041286950854 0.3182225573540559 0  0.04697566456143813 0.703125 0  0.932214461466593 1.048576184124524 0  0.5378954820998444 0.4819963842625978 0  0.7888237271674655 0.6824915590223776 0  0.8140766721389939 1.202394175153234 0  0.5835389593800279 0.5292764624073397 0  0.5373696378449176 0.8407030129848175 0  0.5744937832819315 0.4111492105904384 0  0.653327160816024 0.5205832743260757 0  0.4540565422956371 0.2160018780190284 0  0.8687188106443969 0.7798704687191439 0  0.6916734339165079 0.3693981866845503 0  0.6875 0 0  0.4051686358248369 0.1229632202914007 0  0.1605015840761855 0.6138342388486999 0  0.1706587470506019 0.5162844698625134 0  0.8684032554285257 1.042957182979488 0  0.8406629733206215 0.3732562547250589 0  0.938199208823281 0.06724219411781264 0  0.6794951645420886 0.6090169936860423 0  0.7478065150288655 0.9578315764456105 0  0.9478315426308785 0.4148523627247288 0  0.3105662054292678 0.2849041205875215 0  0.5598632575771201 0.3070134556448483 0  0.5917183757337765 0.188957524089563 0  0.5151693044923682 0.1967111376059941 0  0.3881861199667486 1.042714448240003 0  0.4997671638927392 0.09065576881037679 0  0.6875 1.5 0  0.4375 0 0  0.8125 0 0  0.5625 0 0  0.3125 1.5 0  0.1875 0 0  0.1875 1.5 0  0.5625 1.5 0  0.3521580210018756 1.375016303292267 0  0.6503109227181111 0.8905219994823097 0  0.05988857758114403 1.434032614945904 0  0.8545428057905027 1.155276221253479 0  0.452695441336405 0.58270404912677 0  0.8447799231201838 0.5016201263355714 0  0.946563782798248 1.249759823079916 0  1 0.140625 0  0.8367884202315332 0.1317397455719299 0  0.1454756991922557 0.2357711058119354 0  0.4153218743225581 0.4535899532423587 0  0 1.078125 0  1 0.328125 0  0.8238075538842757 1.085
[...]
<PointData  Scalars="pressure axial"> 
<DataArray  type="Float64"  Name="pressure axial"  format="ascii">2.5940384009663050e-20  1.2705494208814555e-20  -2.7628252408557680e-22  -8.5762085909498246e-20  -1.3759648714637007e-19  1.9170755984909670e-05  3.5284505745949882e-21  3.5025257722514145e-20  5.3483331037068162e-05  5.0420864261106409e-05  2.3189063228002350e-05  -7.3241476381896096e-20  3.1844030789673500e-05  -3.0722726334225980e-19  3.0762060553684084e-05  1.2448037239829933e-20  4.0091619616951991e-20  2.6304421181283013e-20  -6.6534735967645625e-21  5.8121994238271432e-05  -1.5290831422007607e-05  3.3232237445804870e-05  2.3458136687031741e-05  1.3266610010928655e-05  2.6505657194274916e-05  -1.2605758824610639e-19  -1.8835405813388863e-19  5.5573300373102196e-05  3.3837031475660485e-05  2.4478999685358919e-05  -7.0402724570439598e-06  -3.6435656683982749e-20  -2.6551691946424478e-05  5.2905358555359966e-05  3.7934291003685443e-05  2.6220999884711371e-05  2.8671857314245234e-05  2.1723095072044664e-05  1.9525782324728925e-05  2.1515897074622868e-05  -4.0005905754929827e-19  5.2209434134857222e-05  -1.4411358329441860e-06  4.1003370871532209e-05  5.8828642665741973e-05  -6.5553373481506166e-05  -6.0462252980265769e-05  4.7538447428317382e-05  3.3764555134884944e-05  -4.2475818615884480e-05  -5.3718732466603094e-05  -7.5060418431696638e-21  -1.7364088649656870e-20  3.1600757391077009e-05  -2.4104578781454175e-05  4.4750708202352749e-05  2.4614536052185938e-05  1.8863028964978028e-05  5.4837652534100190e-05  4.0812940477740986e-06  3.4166690327116547e-05  2.1863533328247387e-05  3.4636813435843618e-05  1.6713183933873484e-05  3.6911885698136156e-05  2.5145421161701485e-05  3.7929323622388799e-20  3.3457902202601447e-05  2.3765394157125572e-05  -8.3931670384348802e-05  3.4984076299755314e-05  2.1308272530450742e-05  4.8532159741839787e-05  1.1962313151129147e-20  2.8517234944138199e-05  5.3896628278142816e-05  2.9940695951901441e-20  6.0358580380027749e-21  2.2929581580784558e-22  2.5647211738248592e-20  1.5876983607296163e-05  4.2878176336986210e-05  4.3782979164852513e-05  3.0584823420273966e-05  -1.6072978558429584e-05  2.6743499342033032e-05  1.8101958059654602e-05  -6.8053537638562184e-06  -2.2834966585708265e-05  3.7337418278862682e-05  -1.5844188336921154e-19  -8.3850393881487409e-05  -8.4050391070332066e-05  -7.1601381473847138e-19  6.1517014317555077e-05  -5.9145938090587974e-05  2.9035913003037416e-05  5.5096019307380899e-05  5.5707339687022631e-05  3.7526811039759216e-05  2.7186620188163527e-05  2.8851242210907007e-05  -8.5374500661364207e-20  2.4747946094826870e-05  6.5909575708097346e-05  3.4718175837600274e-05  2.9830188921364430e-05  2.3913687203771071e-05  2.8724421847320884e-05  1.9829026170873614e-05  4.4009806533486744e-05  -4.5864842940054265e-05  3.4785291241490451e-05  1.9189198526531869e-05  4.7533178069110096e-05  5.5401984265137276e-05  5.0735413848848868e-05  2.6983982535031904e-05  2.6612158011914038e-05  2.2346926465881852e-05  -3.4763998696253108e-06  -3.4195071288957458e-05  -6.7947409276661232e-05  -1.0752905894898621e-19  4.0717492633736894e-05  1.9606303431432519e-05  6.3529932192533188e-05  2.0784980972146084e-05  2.0461388508161090e-05  -2.4183521267586013e-19  2.4082713021016647e-05  1.8339342286238285e-05  3.7384942945450217e-05  2.4273815621052142e-05  -5.3964489428146051e-20  -1.9800941556311315e-19  -1.2049974294820531e-20  2.5969750312080185e-05  1.1387270110821405e-05  -1.2963213483487033e-05  3.9892364797064372e-05  4.0151747794638312e-06  -8.0032328849419567e-06  -6.4763702715253643e-06  2.6369653633362548e-05  5.1463046851752606e-05  2.9191336341885514e-05  -1.0158938511126102e-05  9.8140380464431284e-06  1.6667557345731417e-05  -3.8594391601278053e-05  -3.1830168666667430e-05  3.6362168123116037e-05  3.7600064226114098e-05  3.3711609191472132e-05  5.5805590268568187e-05  -4.3282472774607457e-05  -7.5845316978474938e-05  4.9040491448791755e-05  5.4764965565539910e-05  -2.6386345154134157e-05  -4.3385384724880648e-05  5.1272484569752176e-05  4.3631232183039948e-05  3.8969028663509885e-05  2.6791595666264243e-05  3.7897215957804272e-05  3.0089237481148007e-05  2.9173331344247738e-05  -2.7426377880215304e-06  2.9813512367345929e-05  3.9673243384380552e-05  -3.7453021170198483e-05  -1.2052535827547578e-04  4.2171186589150055e-05  5.8157280972770507e-05  5.3299525102183522e-05  -3.5316883382376315e-21  -1.1677419294355766e-19  3.4551563616116431e-20  -5.5004350655413598e-05  2.7550730084979054e-05  4.9816684733889400e-05  4.2696729278759532e-05  1.1469826399502738e-05  3.3217184097738157e-05  3.4673933901468723e-05  2.6985324740393494e-05  8.0197180797977852e-21  1.4978942729300959e-05  -1.0619695664751475e-05  2.3131203057493033e-05  -3.4806765013816318e-05  2.6870590421418897e-05  2.9765193453696822e-05  -6.1001942362027382e-05  -1.5651552123723260e-05  1.1799537637812204e-20  5.4500802912112085e-05  5.4287433669767608e-05  -7.8112249447064174e-05  4.2297373274394440e-06  -4.6809985371986282e-05  4.5151450228796080e-05  3.6968332442809164e-05  2.5269023398866898e-05  2.2309677347232888e-05  2.6469268426603550e-05  5.2232732701055939e-06  4.9237745042244780e-05  4.2540277051554444e-05  1.3025195094932979e-05  1.9651294807158413e-05  2.3230610915160303e-05  2.5118742449481610e-05  -9.7288652380865889e-05  3.3259308518215195e-05  4.7219175542441175e-05  3.9562998726269815e-05  2.6522917026888820e-05  3.4125556801783387e-05  1.7558621475302068e-05  2.3406232815916379e-05  1.8403980887186111e-05  2.1710137903298641e-05  2.3895536271342932e-05  3.3649940085900763e-05  2.9168551484262691e-05  2.5318025178733787e-05  2.4883427089708745e-05  3.6668579072457007e-05  -2.8781239737596939e-05  4.4232562663664392e-05  9.0358183169989550e-06  2.8807200584334723e-05  -1.1836991408741522e-06  5.0095577937157638e-05  6.5754241353245543e-05  3.4284363516591292e-05  4.1746419462459020e-20  2.3747125509920336e-20  2.1088236030858431e-05  2.0022805798976805e-05  4.1943069381303208e-05  5.2357976110483139e-05  1.8428618959757817e-05  -8.4405936751445445e-05  4.4200616357233044e-05  -3.4900249469326274e-05  -6.1246600510831160e-06  4.0998883237854764e-05  5.7440203176730688e-05  2.8994687893931356e-05  2.1274886367427589e-05  3.6988504708922027e-05  -6.9618091657612012e-05  -8.1341798528083618e-06  -3.0626219307602575e-21  2.6182208424181876e-05  1.6974013927138428e-05  2.1991714859564146e-05  -7.1785389125426195e-05  -4.9220359760969726e-05  -4.3831563560851297e-06  1.8799962182762438e-05  4.5310489368157359e-06  -3.2524911295737787e-05  6.6251270021123855e-05  2.0917455401703814e-05  5.4149609670096970e-06  2.2172018132978474e-05  4.0380013739005914e-05  1.1318776638805222e-05  2.2246887228154117e-20  4.5332577937427213e-21  -6.6577939212149033e-21  2.1251861113946462e-21  4.1974287233501672e-20  1.1627962067499091e-20  3.4028926039806247e-20  2.5244595772289969e-20  3.0509322891153839e-05  4.0551218715691132e-05  2.0130590254003801e-05  -5.1076595366553994e-05  5.5504143552755284e-05  -5.5056876782112757e-05  -1.1589381199091724e-04  -2.2101686618903436e-20  -2.2198405475587595e-05  5.7820799408583558e-05  5.7454514343602488e-05  2.2757155332944250e-05  -8.1453653813086636e-20  -3.3359653060683266e-05  2.5561935054887595e-05  2.8349313767407858e-05  2.1302325866328516e-05  5.1257302522396667e-05  4.5438011548157383e-05  -6.9181653786353872e-05  6.2847091926239153e-05  4.0696193992030371e-05  3.7716225847085631e-05  4.0870826929155434e-05  2.2493060833541858e-05  3.2047512764393588e-05  5.0620426959707125e-05  -1.9306755617299963e-05  -7.3488426228338960e-06  -4.9995473979902024e-05  -1.3688228478849869e-05  -4.2904055120562473e-05  4.7418027461790829e-05  -1.2321689372901403e-19  -1.1024064944444495e-04  3.8355796246191663e-05  2.9520219695402904e-05  3.1522268852902873e-05  9.0718641865807637e-06  -6.6357958413323813e-06  -3.9640411822829534e-05  2.7167808950800727e-05  3.2532099279238313e-05  1.1593064991449152e-05  -7.1208586002604335e-06  -3.6754748623073079e-05  -6.4179795069219564e-05  4.2949814006295317e-05  7.8118886940477934e-06  4.0275238623778055e-05  -1.2115062861205321e-05  -6.0306979360022904e-05  6.3176456749310919e-05  2.5272975406825583e-05  9.6393217765170971e-06  -4.9396565890318640e-20  5.2764034819443971e-05  2.5332935078633028e-05  2.8280167604365750e-05  5.6524865674227508e-05  -1.3893826996634367e-05  -8.0863740149385359e-05  5.7064342170419170e-05  5.0170561024634331e-05  4.7054434234413591e-05  1.7253979289671292e-05  1.7251786442547100e-05  3.4692351346985976e-05  -2.6774173244949004e-05  1.5005421265702946e-05  2.3079428523012228e-05  3.2022145232010228e-05  2.1163026458555548e-05  4.3999592476253717e-05  4.7071045138588400e-05  -1.8573022897877452e-19  -6.7015929912839746e-05  5.9646103310193595e-05  -1.6174466862232590e-05  2.8257595806830478e-05  5.3120827894272661e-05  4.3366190924240974e-05  4.5973576826534598e-05  2.3198348389488439e-05  2.8357668724406605e-05  2.2496867297524078e-05  2.2624745226179468e-05  -5.8548054920306878e-05  -4.8243411801760544e-05  4.3040275881936885e-05  5.8239361589404492e-05  4.1234071819969777e-05  3.5267370266363908e-05  3.7802890643145167e-05  -3.9511781087172421e-05  4.1111375411289627e-05  5.3230462511108341e-05  5.4115016486547593e-05  4.5824162729949707e-05  2.8378036454259728e-05  2.4685869277166845e-05  2.7087929770962397e-05  -7.5129952373638467e-05  2.4332129292641016e-05  2.8159743907171909e-05  3.6111617741066019e-06  1.5848013145686035e-05  -2.5763985434808339e-05  -2.3990750035988564e-05  5.8137346424218612e-05  -1.3406447114520812e-04  2.9210145098073533e-05  -4.5849464306058180e-19  3.4006635925621948e-05  4.7484940045203065e-05  2.7063592866922691e-05  4.2488064710962734e-05  3.1586181285420376e-05  3.1686971337218593e-05  2.9756408682532607e-05  -6.6712081870929965e-05  3.2500439682254693e-05  1.8538737077227348e-05  1.4472476040238317e-05  3.0073135379470053e-05  3.1581927436831246e-05  2.0505501823270564e-05  -2.4838025961283926e-05  1.8530249204730162e-05  5.1930374644553708e-05  2.1272926046266968e-05  -1.3923872671115217e-06  2.6223455124988775e-05  2.0475424766915190e-05  2.0465279755791410e-05  5.1747094121038679e-05  4.2672892757174462e-05  2.7252975934531921e-05  4.2794065828406701e-05  4.7879599564567848e-05  1.3376750313034794e-05  -3.1643091132302302e-05  4.3764189976653837e-05  4.7114446371876578e-05  1.7905216161968152e-05  3.5156624096918588e-05  -4.9802932281833758e-05  -4.4630757124038761e-05  2.4496684595492295e-05  -7.5086140763732300e-06  -1.5045411855135631e-05  -6.0230326594018830e-06  2.5979157417849216e-05  2.7541287827512095e-05  5.5537426070238099e-05  3.7963680628695950e-05  7.4193072446939189e-06  2.7110796471712473e-05  -4.9426848761607002e-05  3.3403499041456405e-05  2.2558361063427498e-05  -5.3806982950313666e-05  -6.6358507610121489e-05  3.2173788994008255e-05  2.4368350690783333e-05  3.1455946122470783e-05  3.0149270492028074e-05  2.1522390870746673e-05  4.0235599270212321e-05  6.6332947174928524e-05  -2.2462851839184968e-06  4.9068824872146721e-05  4.2983156371216104e-05  -4.5939741564949003e-05  2.0962174359147194e-05  5.9716738820069572e-05  2.0329007784652691e-05  4.5146285935277677e-05  1.8944954276945984e-05  -3.0932567057579686e-05  1.7588919313046578e-05  6.0236923194082796e-05  7.2361575950622017e-06  1.8289000689181294e-05  2.2203831817017631e-05  4.3074436097303297e-05  1.9217001139641213e-05  -3.4884548247547382e-19  2.3718999643714304e-05  1.2791308244657128e-05  -9.4525701105246286e-20  -4.0878828270112652e-21  1.8616997962245434e-05  1.9822476063243281e-05  2.7320535545192620e-05  2.4428617746712376e-05  2.3642382701965622e-05  1.8562454479121701e-05  -2.7925755638674966e-19  -2.5576213804408659e-19  3.7113280188468803e-05  3.5315575904028198e-05  2.7912490740661120e-05  2.1413500596265608e-05  2.1027814870908899e-05  2.1947108843482192e-05  -1.1971554919856695e-19  -1.3184469790199495e-19  -1.5049962907270173e-19  -6.4864425158640874e-19  -2.1788330612018187e-19  -3.5219148984151170e-05  5.3259034396221995e-05  2.7441338796043280e-05  5.3651175029233747e-05  2.5226292074526124e-05  3.3650892923726642e-05  6.0014379907367248e-05  6.0852767670064147e-05  4.8216946275101341e-06  -8.4170153411905381e-06  -4.2702070757275671e-06  1.9871503609677665e-05  -4.0666177979301578e-05  5.3043706437636369e-05  1.2754694548742157e-05  -4.3438192276504627e-05  -1.0571032068183588e-04  -8.0674516538767089e-05  3.4969868706680957e-06  7.6006757391826274e-07  1.9385548574234881e-06  -2.7675680516592101e-05  -3.1261820859308705e-05  -3.6345571423214049e-05  5.6275712003474915e-05  5.5544497886381309e-05  5.1676778573029199e-05  7.0588740222525466e-06  2.7214192444048210e-06  3.2235172506417408e-06  1.9526242988068664e-05  3.2751679448709527e-05  3.4239423736970908e-05  2.1654442342250282e-05  5.4249193553126456e-05  4.5386419238154699e-05  1.6127775025180812e-05  1.8684539169943812e-05  1.8838183298802973e-05  5.4439276176514341e-05  5.6525711995237445e-05  -2.4590331564433376e-05  -5.6200785022664567e-05  2.7848338188987853e-05  1.7201668670928337e-05  1.2422713174802480e-05  -1.4322249280317948e-05  3.1365141071609420e-05  1.1664881620929180e-05  -2.7385511456349478e-06  -6.9865011096349525e-06  3.2375426330005323e-05  1.5245181347192179e-05  2.4540379646732355e-05  3.1488466074964309e-05  3.3087429762377505e-06  -3.5104406765435802e-05  1.8677372527534192e-05  1.3209502397098817e-05  1.5254181377288492e-05  3.4886695385867342e-05  5.7888704366272704e-05  4.6990948318816875e-05  3.2005889960358428e-05  4.5165502330450564e-05  3.5479007920300101e-05  2.9482978727809447e-05  -1.8980863154405689e-05  -1.7730096421276509e-05  -1.9579625758068150e-06  3.1516581717204518e-05  -2.7657093805942509e-05  4.0565201716444487e-05  4.8063685085082770e-05  4.9905377775034979e-05  5.1874777561659494e-05  5.0035814680410343e-05  3.8424898825037887e-05  3.5329566859528575e-20  5.3902228671218178e-05  4.0373419226882268e-05  3.2438043740072711e-05  5.0810531817406651e-05  -3.8131025230368635e-05  3.0595428606718836e-05  -1.7185046166384479e-05  1.6232382017111747e-05  5.1426458804117459e-05  2.3791821902228174e-05  5.5438785682324573e-05  3.4727902239405632e-05  3.8586505194149161e-05  3.5203893543793781e-05  1.7399133056460402e-05  -1.1218448072172834e-05  3.6054433298407432e-05  4.1786691251398829e-05  1.1611512430926348e-05  1.3443107316375367e-05  -6.4265001125576488e-05  4.0683412196551438e-05  3.6495040000272058e-05  -7.0792959679310760e-05  2.5191485525828052e-05  -2.6801189706053659e-06  4.8625299644860183e-05  2.9097772928329843e-05  4.0682644247278282e-05  2.3380889574428663e-05  5.1921973122399332e-05  2.7660779496008410e-05  -2.8791738565747720e-05  2.7221727976253574e-05  2.7826757096606850e-05  2.6145166083095377e-05  2.4096080054071195e-05  3.6478946947503767e-05  1.5719978824613654e-05  -3.5546262137593717e-05  -6.4586164859136699e-05  -6.0565890331119431e-05  3.8282733964173777e-05  -5.5868527063051462e-05  5.5785451186375372e-05  -8.3230536885770163e-05  6.1272166166651518e-06  2.7726632059077459e-05  4.3026987719633504e-05  4.3024165829172625e-05  5.2840468336969895e-05  -4.7409311512243680e-05  -4.4975475051383060e-05  -8.7103849919340198e-05  -4.9648187115166992e-05  -5.1745633584147556e-05  -3.3080131425275436e-05  -1.6225663471320764e-04  5.2402176893198908e-06  5.5849384314531716e-05  2.8209641718809344e-05  2.9292514761854097e-05  2.8034770683050343e-05  5.9796254341469511e-05  -1.5998260219927598e-05  2.5838232525807753e-20  3.6978969429968088e-05  3.1268270187879949e-05  3.0345774014959458e-05  4.4875168733033256e-05  3.3028318617055370e-05  4.4680899567950233e-05  2.6788931648352074e-05  3.1949080155897634e-05  3.6196372613017396e-05  4.2497863614510183e-05  6.1596970568424009e-05  5.0569770793757898e-05  -1.4398664660439824e-05  3.0728082137877372e-05  2.3789363174317156e-05  5.4060591091943167e-05  -2.2560453571336239e-05  -4.7764434321179972e-05  -3.2015139837922062e-05  -1.5636185406925531e-05  4.5963313849406276e-05  3.7954131880390027e-05  2.6110505068687776e-05  1.5581862431638148e-06  -4.4708374024761500e-05  -3.0429434356763261e-05  -1.4080356207020259e-05  -2.1627670072617904e-05  2.2237909109133782e-05  2.3702980163934196e-05  3.3679700887643673e-05  3.0160387131730521e-05  -2.6614904498191734e-05  5.7524062122404213e-05  -6.9508532201422447e-07  2.8369448114153210e-20  3.8906978669395561e-05  -7.5942788482234878e-21  -3.5192596122611271e-06  -6.3212412481937908e-22  -6.8785434464691342e-05  -3.7882338985199917e-05  6.1053337504526984e-05  2.9772280567591904e-05  4.5952561566553096e-05  5.2176177292305602e-05  4.5181964980197006e-05  3.9827776998597668e-05  -4.4795069593229319e-05  -3.2691663543346302e-05  -3.8862626738778573e-05  3.3124181153530588e-05  -5.5081268628619481e-05  2.6545248792760727e-05  4.9890728194113099e-06  9.1652766868786201e-06  1.9053345937977251e-05  1.4153118977598877e-05  4.6060935331971572e-05  4.8488173047415191e-05  -1.4089092321263534e-04  2.6597895862027803e-05  2.5746407940962606e-05  -8.1953639445608086e-06  -7.5425795915335392e-05  3.5345999608318579e-05  2.2892631549636501e-05  2.1799545315203149e-05  4.8740875423423562e-05  3.1579413131164455e-05  -3.3800134138574727e-05  5.1456253690366352e-05  -7.3798816078049999e-05  1.3926789210545498e-05  1.5597112430822379e-06  1.0676842038657163e-05  3.0124205473496367e-05  2.8177635161872579e-05  2.9455742817105994e-05  3.9021734016068865e-05  3.5011721486674780e-05  6.3910044693169294e-05  1.2205727995501944e-05  5.3216799294509973e-05  5.5463091460194087e-05  1.4011944398269522e-05  3.6031650161775296e-05  -2.6769559183958724e-05  1.6715443767515554e-05  1.1758373563784866e-05  -5.3109573119194988e-05  2.0757973070045199e-05  3.1320042278506418e-05  4.8134523188174408e-05  4.3333879436322546e-05  5.7138432424477316e-05  -5.1146792080113035e-05  -2.6846512892346947e-05  3.3811610455377652e-05  2.5665199615973096e-05  2.5373646485941074e-05  -8.6839782522275093e-06  7.3325832819599320e-06  4.1325018791256428e-05  3.1421838706984617e-05  3.7245831035197925e-05  -1.9332971891698550e-05  4.4429388377495662e-05  5.1990038212377261e-05  4.9547565567474572e-05  -9.8130472501404414e-05  2.4849315433667713e-05  1.1484944285667616e-05  2.9050728601271887e-05  5.0197562342113631e-05  5.0083058675117534e-05  1.1259150323160071e-05  2.3603941942069209e-05  2.3467004791136662e-05  -9.5455381565270699e-05  -5.8690586295199207e-05  2.5580310117205660e-05  2.9335263705819127e-05  1.9132360055141903e-05  -6.7886040830536496e-05  3.2196865767651494e-05  2.4508857963426700e-05  5.4928476963667977e-05  2.9166101615568490e-05  -5.3999146381888831e-05  6.7479162394116501e-05  2.9853060739832570e-05  2.2329804072824317e-05  2.1613947839985713e-05  -1.7321181441963748e-05  6.1741382202360800e-06  2.4657757647658368e-05  3.8007597434810157e-05  4.7015266643731593e-05  3.8321215693046439e-05  2.2183519787109748e-05  1.8888835839938017e-05  3.1393139175854749e-05  3.7065699989309766e-05  3.1796486808507396e-05  3.4299744735568365e-05  8.3728968648781474e-06  -8.5196750701792805e-05  -9.1211840105303850e-05  1.2887285157371380e-05  6.4087201330438633e-05  3.1093017875239214e-05  3.1867558833906957e-05  2.5987826083382021e-05  -1.3719939094402592e-05  1.2353138504094264e-06  2.4865305439882188e-05  5.1841415139775019e-09  2.4841566965672807e-05  2.9371156346102328e-05  1.6824159072007648e-05  1.8140336095359482e-05  3.6748764882322675e-05  3.8052299702510836e-05  -2.2172051239154108e-05  2.5000968582458275e-05  1.8572117424155100e-05  1.8632472230846217e-05  -8.0962720810348978e-05  1.2904404725192452e-05  8.6513751966006180e-21  -3.5855776695595007e-05  2.1369174531380997e-05  2.3830235298732959e-05  2.4453525608194133e-05  2.8300425761050198e-05  3.3412403429133055e-05  2.6560535975662920e-05  3.3822023920438705e-05  2.9241528541937837e-05  2.9343213720701635e-05  -7.2599727303669222e-05  2.764260424470060