<?xml version="1.0"?>
<VTKFile type="UnstructuredGrid"  version="0.1"  >
<UnstructuredGrid>
<Piece  NumberOfPoints="1079" NumberOfCells="1944">
<Points>
<DataArray  type="Float64"  NumberOfComponents="3"  format="ascii">0.08500000000000001 0.02 0  0.005 0.02 0  0.005 0.03 0  0 0.03 0  0 0 0  0.005 0 0  0.005 0.01 0  0.08500000000000001 0.01 0  0 0.015 0  0 0.0075 0  0 0.0225 0  0.04500000000000001 0.02 0  0.04500000000000001 0.01 0  0.025 0.01 0  0.025 0.02 0  0.065 0.02 0  0.065 0.01 0  0.035 0.02 0  0.035 0.01 0  0.07500000000000001 0.02 0  0.07500000000000001 0.01 0  0.015 0.02 0  0.015 0.01 0  0.05500000000000001 0.01 0  0.05500000000000001 0.02 0  0.07000000000000001 0.01 0  0.07000000000000001 0.02 0  0.05 0.01 0  0.03 0.01 0  0.03 0.02 0  0.04000000000000001 0.01 0  0.01 0.01 0  0.02 0.02 0  0.06 0.015 0  0.08500000000000001 0.015 0  0.05 0.02 0  0.07250000000000001 0.015 0  0.04000000000000001 0.02 0  0.03750000000000001 0.015 0  0.0525 0.015 0  0.02 0.01 0  0.01 0.02 0  0.0275 0.015 0  0.0125 0.015 0  0.08000000000000002 0.01 0  0.08000000000000002 0.02 0  0.0325 0.014375 0  0.04291666666666667 0.015 0  0.065 0.015 0  0.005 0.005 0  0.005 0.015 0  0.02208333333333334 0.015 0  0.07791666666666668 0.015 0  0.005 0.025 0  0.06 0.01 0  0.06 0.02 0  0.01729166666666667 0.01572916666666667 0  0.04770833333333334 0.01427083333333334 0  0.06875000000000001 0.01625 0  0.008750000000000001 0.01625 0  0.05625000000000001 0.01625 0  0 0.00375 0  0 0.01875 0  0 0.01125 0  0 0.02625 0  0.08145833333333334 0.01354166666666667 0  0.0675 0.01 0  0.0075 0.0125 0  0.0625 0.0175 0  0.0575 0.0125 0  0.0625 0.0125 0  0.08207465277777778 0.01707465277777778 0  0.06767857142857144 0.01321428571428571 0  0.0175 0.01 0  0.01875 0.01291382575757576 0  0.0475 0.02 0  0.04564168086314595 0.01679860519591141 0  0.00296875 0.0125 0  0.0025 0.03 0  0.0025 0 0  0.00296875 0.0175 0  0.01521990740740741 0.0132349537037037 0  0.0497800925925926 0.0167650462962963 0  0.0325 0.02 0  0.03474264705882353 0.01674632352941176 0  0.03750000000000001 0.02 0  0.03025735294117647 0.01674632352941176 0  0.0275 0.02 0  0.0525 0.02 0  0.0125 0.01 0  0.04020833333333334 0.01322916666666667 0  0.03750000000000001 0.01 0  0.0225 0.02 0  0.02479166666666667 0.01677083333333333 0  0.07520833333333335 0.01322916666666667 0  0.07250000000000001 0.01 0  0.07520833333333335 0.01677083333333334 0  0.07250000000000001 0.02 0  0.04020833333333334 0.01677083333333333 0  0.0225 0.01 0  0.02375 0.01262152777777778 0  0.04250000000000001 0.02 0  0.04250000000000001 0.01 0  0.07750000000000001 0.01 0  0.07750000000000001 0.02 0  0.05036151960784314 0.01294424019607843 0  0.0705560064935065 0.01284699675324675 0  0.05458333333333334 0.01291666666666666 0  0.0021875 0.024375 0  0.005 0.0275 0  0.01125 0.0175 0  0.01463848039215686 0.01705575980392157 0  0.01 0.01375 0  0.03625 0.0125 0  0.0021875 0.009375 0  0.05375000000000001 0.0175 0  0.07125000000000001 0.0175 0  0.005 0.0025 0  0.0021875 0.005625 0  0.02655220103578155 0.01234889948210923 0  0.002187499999999999 0.020625 0  0.02979166666666667 0.01302083333333333 0  0.0525 0.01 0  0.07895833333333334 0.0125 0  0.01994277885235332 0.01704213007736944 0  0.07934656179076068 0.01733823814273861 0  0.04505722114764669 0.01295786992263056 0  0.06625 0.0175 0  0.006250000000000001 0.0175 0  0.05750000000000001 0.02 0  0.05875000000000001 0.0175 0  0.005 0.0225 0  0.005 0.0075 0  0.002375 0.027375 0  0.002375 0.002625000000000001 0  0.0475 0.01 0  0.0175 0.02 0  0.0325 0.01 0  0.03375 0.0121875 0  0.04261299435028249 0.01749205508474576 0  0.08500000000000001 0.0125 0  0.08250000000000002 0.01 0  0.02121963399965531 0.01224824108143494 0  0.0675 0.02 0  0.0125 0.02 0  0.02720152243589744 0.0175 0  0.03715165441176471 0.0175 0  0.08500000000000001 0.0175 0  0.0275 0.01 0  0.0025 0.0149560546875 0  0.0075 0.01 0  0.0075 0.02 0  0.06526785714285716 0.0125 0  0.01281031447005516 0.0125 0  0.0625 0.015 0  0.06 0.0125 0  0.05750000000000001 0.01 0  0.0625 0.02 0  0.0625 0.01 0  0.08250000000000002 0.02 0  0.04260103740101855 0.01252623201412851 0  0.02240052247582197 0.01750164767101344 0  0.07293583459427785 0.01238479732953041 0  0.005234374999999999 0.012265625 0  0.03528131980640358 0.01454684009679821 0  0.0325 0.01760027210036557 0  0.02532593822924343 0.01428227733767297 0  0.08009952069819683 0.01527145502895417 0  0.01987282359856536 0.01482587683689801 0  0.04828232595121382 0.01210233572595705 0  0.01671767404878618 0.01789766427404295 0  0.05125 0.01829007549029352 0  0.05247215456215357 0.01288882122882024 0  0.07338729919678716 0.01799385040160642 0  0.03838729919678716 0.01200614959839357 0  0.07717482110586968 0.01780301674207099 0  0.04771860040890012 0.01773306039388322 0  0.03125 0.01160380747126437 0  0.06875000000000001 0.01154265873015873 0  0.07625000000000001 0.01154065860215054 0  0.01625 0.01153997817696946 0  0.068125 0.018125 0  0.05437500000000001 0.015625 0  0.066875 0.015625 0  0.07039794950204951 0.01494384850614853 0  0.05687500000000001 0.018125 0  0.006875 0.015625 0  0.008749999999999999 0.01833333333333333 0  0.010625 0.015625 0  0.05625 0.01416666666666667 0  0.05812500000000001 0.015625 0  0.0449088595298192 0.01494528408816316 0  0 0.016875 0  0 0.013125 0  0.04962452342047931 0.01478673066448802 0  0.0153754765795207 0.01521326933551198 0  0.0771774565913315 0.01322498191305479 0  0.01857756431135545 0.01840228599899994 0  0.04642243568864456 0.01159771400100006 0  0.08125000000000002 0.01155637254901961 0  0.08317650804863432 0.0118234919513657 0  0.08288217288011697 0.01511353252923977 0  0.02837253504384828 0.0117177464035174 0  0.03896057962520807 0.01831163685754031 0  0.01125 0.0114244162490927 0  0.00935910490099115 0.0119067901980177 0  0.02946078431372549 0.01495404411764706 0  0.02875 0.0185829434466942 0  0.002968749999999999 0.0225 0  0.064375 0.016875 0  0.00296875 0.0075 0  0 0.001875 0  0 0.005625 0  0 0.009375 0  0 0.020625 0  0 0.024375 0  0 0.028125 0  0.06062500000000001 0.01812500000000001 0  0.008303571428571429 0.01446428571428572 0  0.01375 0.01865917058160413 0  0.05137790313978056 0.01143372888932909 0  0.04125000000000001 0.01131513063942604 0  0.04101690263896279 0.01844430285842771 0  0.02399563533148224 0.01844349395710867 0  0.08125000000000002 0.01868815426145731 0  0.05354684380692146 0.01145463537600848 0  0.01699195823639423 0.01315138909884649 0  0.07598357371794873 0.015 0  0.04098357371794872 0.015 0  0.003744047619047619 0.00375 0  0.003344630281690141 0.02580853873239437 0  0.04625 0.0187354532243972 0  0.06388392857142858 0.01138392857142858 0  0.06375 0.01375 0  0.05875 0.01375 0  0.06375 0.02 0  0.00622802734375 0.01372802734375 0  0.003630681818181818 0.001369318181818182 0  0.003630681818181818 0.02863068181818182 0  0.06125 0.01625 0  0.06125 0.01125 0  0.05625000000000001 0.01 0  0.05875 0.01125 0  0.06125 0.01375 0  0.08337864763241221 0.0183786476324122 0  0.05213634138653413 0.01674432930673294 0  0.04375000000000001 0.01 0  0.07424178685897437 0.01529258578431373 0  0.03924178685897436 0.01529258578431372 0  0.03410139294454583 0.01843406022904556 0  0.03089860705545417 0.01843406022904556 0  0.02094160484316717 0.01850229584291991 0  0.04375000000000001 0.02 0  0.04437042160883325 0.01820701498672512 0  0.04816311705429156 0.01600061344661149 0  0.07151224904251052 0.0114127410511319 0  0.04395528506193162 0.01639387970349481 0  0.0128750358694518 0.0167500179347259 0  0.02855808448399799 0.01642839899839741 0  0.02812690373330794 0.01340955081400569 0  0.08358500641945087 0.01351822349116885 0  0.05590277777777778 0.01173611111111111 0  0.06683110430364615 0.01164926404662283 0  0.02573206694914602 0.01842532451809762 0  0.01438126661842046 0.01166701193099454 0  0.02384283211216029 0.01526549696571563 0  0.03625 0.02 0  0.004609375000000001 0.0182421875 0  0.003398437500000001 0.01943359375 0  0.001728307845744682 0.01894718251329787 0  0.004377805359085963 0.01656966216675735 0  0.04649673309852075 0.0153889662370871 0  0.03615513600614297 0.01592654988586041 0  0.03316985071935832 0.01598763605018279 0  0.03110111603888768 0.01529816275177977 0  0.01370614113484869 0.0138804542047638 0  0.04930041102671841 0.01842260568883502 0  0.07875000000000001 0.02 0  0.0745395359848485 0.01165101111925709 0  0.03860755698543604 0.01373741558556884 0  0.02605038706571737 0.01573944002207753 0  0.07559826163500957 0.01841729376139847 0  0.04437500000000001 0.01149157931286774 0  0.06874116707361365 0.01454618473032123 0  0.003761917372881356 0.0239307468220339 0  0.003984374999999999 0.01125 0  0.003768503289473684 0.01392539576480263 0  0.001796875 0.0111328125 0  0.003761917372881356 0.008930746822033899 0  0.005 0.00625 0  0.003761917372881355 0.0210692531779661 0  0.06633928571428571 0.01410714285714285 0  0.006484375 0.01125 0  0.08364120589325512 0.01657288979763549 0  0.03576267476503373 0.0184116442851204 0  0.07370875846579374 0.0137848203678562 0  0.06964285714285715 0.01758928571428571 0  0.05520833333333334 0.01833333333333333 0  0.06491071428571429 0.01839285714285714 0  0.0510098951944636 0.01559941474766356 0  0.01786087179886325 0.0115702210443714 0  0.01972197383235524 0.01160576093166696 0  0.01804697593127788 0.01433503795474974 0  0.001644074528704677 0.01642892723865279 0  0.00125 0.03 0  0.001497685185185185 0.001267746913580247 0  0.07315451164202422 0.01643443118912983 0  0.001233906745910645 0.0140625 0  0.01162635071030191 0.01362229857939618 0  0.01528023503083844 0.01845923557506155 0  0.06625 0.02 0  0.07695012019230771 0.01624387078484555 0  0.03139091092855769 0.01320776147621796 0  0.03857339107781042 0.01675295051810485 0  0.001754993120977522 0.02590789105493891 0  0.002288757784711197 0.00412546923654445 0  0.07914382119690884 0.01404430049871201 0  0.001391810103286306 0.01257390899021902 0  0.0419501201923077 0.01614675005432421 0  0.001484375 0.007018229166666667 0  0.001484375 0.02201822916666666 0  0.048
[...]
<PointData  Scalars="concentration"> 
<DataArray  type="Float64"  Name="concentration"  format="ascii">5.3795406127273604e-01  9.9256939526962962e-01  9.9999999999999889e-01  9.9999999999999944e-01  -3.2311742677852639e-22  1.5016245559831948e-23  1.6987388673027924e-02  5.3513503171685384e-01  5.5566386015269631e-01  1.1570896164573091e-03  9.9965739876147708e-01  5.6337576922115173e-01  5.0978748650978922e-01  4.1682996204123790e-01  6.5545628258145927e-01  5.4258054250335830e-01  5.3047498749186228e-01  5.9301344145957202e-01  4.7954415551239266e-01  5.3940243265675958e-01  5.3369337980891640e-01  7.8428564323362793e-01  2.8322452521158331e-01  5.2380941661289826e-01  5.4925262089410387e-01  5.3238733175165287e-01  5.4071077811742285e-01  5.1801272685325206e-01  4.5376221688226037e-01  6.1852329257719152e-01  4.9754097663697755e-01  1.6794273879308935e-01  7.0831244410570937e-01  5.3654389581343365e-01  5.3654366879131754e-01  5.5498800007788851e-01  5.3654066071792006e-01  5.7544311014805460e-01  5.3654143781111041e-01  5.3653004602038623e-01  3.6315882157694251e-01  8.8797071197462818e-01  5.3676322868948501e-01  5.4101043392464820e-01  5.3458181297728435e-01  5.3851368209631989e-01  5.2254673983525957e-01  5.3655883342678612e-01  5.3654994184988125e-01  8.4315516948490194e-06  5.5509073359079542e-01  5.3686601997090921e-01  5.3654389170993277e-01  9.9999897251143244e-01  5.2778839846042203e-01  5.4529861042252992e-01  5.8893976396771253e-01  5.3132544219402955e-01  5.3837252169139127e-01  7.0964425618112081e-01  5.4122089204032575e-01  1.9173367981962187e-05  9.6678738744157999e-01  6.1948602896212450e-02  9.9999637737323555e-01  5.3573139639447653e-01  5.3156116924492258e-01  2.0810093600643897e-01  5.4194963723318779e-01  5.2877077043315990e-01  5.3118929409387505e-01  5.3760172840760667e-01  5.3380791969259922e-01  3.2700630760037819e-01  4.1614865921286953e-01  5.5887080484576790e-01  5.5093299496519843e-01  1.4510662502644203e-01  9.9999999999999878e-01  -8.3965145149493242e-23  9.1562104797624388e-01  4.0060465896950909e-01  5.4695315649890874e-01  6.0462070508823407e-01  5.6798042885676103e-01  5.8353167640165926e-01  5.8047857110847612e-01  6.3592246269708774e-01  5.5186725202777853e-01  2.2996769056648644e-01  5.1525136717331599e-01  4.8965310376394749e-01  6.8042834929509888e-01  6.0337787174487856e-01  5.3498609088578553e-01  5.3310370115136996e-01  5.3809855011661756e-01  5.3999152594898758e-01  5.5783434862040449e-01  3.9298394811248960e-01  4.4363496018696086e-01  5.6887559662057219e-01  5.0415183045629042e-01  5.3415110453622283e-01  5.3892222126566536e-01  5.2523192573982802e-01  5.3393865025564946e-01  5.2818151428965265e-01  9.9999834760523676e-01  9.9999998414274915e-01  7.8109513632187644e-01  6.9944347901204340e-01  3.9110661664280028e-01  4.9831002486003279e-01  5.2428828390342812e-03  5.4682619537131549e-01  5.3934267054007312e-01  4.3304595087758208e-08  2.3741501407784276e-05  4.5433019759498849e-01  9.9875714127043624e-01  4.8553268971891211e-01  5.2124197477556433e-01  5.3497165655606516e-01  6.4525807728724194e-01  5.3799692956674638e-01  5.1988551833399332e-01  5.4057713828360998e-01  8.8604673428643677e-01  5.4715038319720632e-01  5.4367836481679688e-01  9.9993828660468165e-01  3.0248079759091713e-04  1.0000000530673221e+00  -5.7149699470032182e-07  5.1433472178215012e-01  7.4343413618839704e-01  4.6851636010161968e-01  4.8669455905731479e-01  5.6030698248500277e-01  5.3551974159512283e-01  5.3491684052871824e-01  4.1136148334345685e-01  5.4154729065901797e-01  8.3185173840921578e-01  6.1122222523121827e-01  5.7185378351183236e-01  5.3756712087507508e-01  4.3758875889787024e-01  5.4977040756591500e-01  9.4016123298087242e-02  9.4553035387790141e-01  5.3217653325600833e-01  3.1668850974301777e-01  5.3655532694280073e-01  5.3012549633358119e-01  5.2592590540513595e-01  5.4385225323371844e-01  5.2925646480692012e-01  5.3817136321159376e-01  5.1302605944540813e-01  6.4353491923078021e-01  5.3399226897730290e-01  1.3124437609745351e-01  5.2804075813024842e-01  5.8831588621873032e-01  5.0880521885353647e-01  5.3672504797538101e-01  5.2754211376865801e-01  5.1924312442497467e-01  7.1776390544633784e-01  5.5139738923695014e-01  5.2667617050138893e-01  5.3924833185377796e-01  4.9985664785743639e-01  5.3850370745905807e-01  5.5387181895808013e-01  4.6958213538611815e-01  5.3241323166123034e-01  5.3417799924266562e-01  3.2856146803192504e-01  5.4065889593215344e-01  5.3931808578198748e-01  5.3762222154097594e-01  5.3647247366066975e-01  5.4604017712277486e-01  6.4780537842861696e-01  8.8096480158099721e-01  6.1594770606158511e-01  5.3338449635078911e-01  5.3863415126044023e-01  5.3609260471520237e-01  8.3827366956409100e-01  2.4192914285479444e-01  5.3521095537462005e-01  5.5600156509404297e-01  5.3519579283119545e-01  7.0904115714018057e-01  5.1482352437974854e-01  5.3492519900420055e-01  5.3521809964075029e-01  5.3660202327533635e-01  4.5475115548395062e-01  5.7389181414988399e-01  2.2396795135555905e-01  2.0366991806737597e-01  5.3517666667418629e-01  6.1983473279085788e-01  9.9995765786927726e-01  5.4022594469542984e-01  2.4412056053771484e-04  5.8977711944507808e-06  1.2940317537315864e-04  9.4821190898948544e-03  9.9618062740541113e-01  9.9996824104492732e-01  9.9999894654281440e-01  5.4374899258915177e-01  4.7009141760108170e-01  7.9181273918293626e-01  5.2108841147041318e-01  5.0317195364457479e-01  5.6958464021138122e-01  6.5258609230347620e-01  5.3821724019037109e-01  5.2350276490948178e-01  4.1213714538688129e-01  5.3654483594502878e-01  5.3657040355656449e-01  3.9385438970137783e-07  9.9999991628030116e-01  5.5966343816821429e-01  5.3046897814010230e-01  5.3388743223310942e-01  5.3267880112601762e-01  5.4316297427431792e-01  3.4350738125611285e-01  -6.9529055541823208e-08  9.9999999040657228e-01  5.3975726937530066e-01  5.2898907527049610e-01  5.2497348414427636e-01  5.2744935528171499e-01  5.3335063106043246e-01  5.3790229378373422e-01  5.4513388825474152e-01  5.0705353869543990e-01  5.3684068683102326e-01  5.4047328508212322e-01  5.9140760954510585e-01  6.0594108000726865e-01  6.8347307505178057e-01  5.6595181125760530e-01  5.6100244342272487e-01  5.4341458815474419e-01  5.3311005992700089e-01  5.4953674459626378e-01  7.0039280225852441e-01  5.7837431835969944e-01  4.8933928358474638e-01  5.3585372607146675e-01  5.2605384152928136e-01  5.3185424432308326e-01  6.3787433004438365e-01  3.0162809757279424e-01  5.4806470489898140e-01  5.8827949521176393e-01  9.5679221802336556e-01  9.9182142566279052e-01  9.8007917694295854e-01  8.0965884662206455e-01  5.3969203338716820e-01  5.5226324396025206e-01  5.5741051736485103e-01  5.4415779324901992e-01  4.3777741113371543e-01  5.5404813308775702e-01  5.3871292753357736e-01  5.3390047178282019e-01  5.1906975641556885e-01  5.6348086168511569e-01  5.3901208549904556e-01  5.1085483067356363e-01  5.3586987119697294e-01  9.9999575773317140e-01  4.3683687184400660e-02  3.5581710418006846e-01  4.4241374765992034e-02  2.2565700555560214e-03  5.2784388511161625e-05  9.9951443233069015e-01  5.3496532750481107e-01  8.6489393760915564e-02  5.3727008903301254e-01  5.8487537374544707e-01  5.3531227975581197e-01  5.3977526189189651e-01  5.4774321069217624e-01  5.4199693857429831e-01  5.3995291156062364e-01  3.5266920397865337e-01  3.7681286177648077e-01  4.9437260460474014e-01  7.9389117424496281e-01  9.9999999999999956e-01  -2.6699217265480584e-07  5.3805019770022766e-01  3.8237346893746038e-01  3.9650385472972577e-01  7.5916755959761018e-01  5.4204904484085770e-01  5.3754551948394991e-01  4.9492259363811747e-01  5.6036605292953012e-01  9.9999935295919629e-01  1.6434114604623983e-06  5.3589471984815107e-01  1.5814830405693212e-01  5.4914852469033859e-01  1.6212121186639161e-04  9.9979363015782519e-01  5.2671762345151873e-01  5.1941174934581569e-01  6.5286861721507128e-01  5.3093263805603763e-01  5.2292567802478584e-01  6.4926444328131705e-01  5.2578963391663469e-01  5.8483717421909243e-01  5.2401096082069754e-01  5.3156243333626618e-01  5.0216742863193287e-01  5.9471149110148491e-01  4.7498847190356891e-01  4.5364261712778153e-01  4.3025971921289968e-01  4.0471595180074116e-01  4.2688790931674298e-01  4.0784062649186814e-01  5.3376680310043179e-01  5.3530399765657832e-01  5.3440804747282777e-01  9.9996530960912533e-01  1.2479561657492452e-05  2.2751149422817374e-03  4.5979622203993931e-01  1.0000000573148846e+00  4.9562273470115625e-01  5.0325699156158565e-01  5.4030997730048602e-01  5.3945486582617663e-01  5.4397195685632493e-01  5.4151899464772835e-01  5.3986090343096127e-01  7.9400894556264956e-01  4.8520031678209047e-01  4.8515474040953832e-01  4.9173815869720566e-01  8.3564481674508884e-01  9.7202581926581488e-01  5.4070825669911948e-01  5.3887047110964215e-01  5.4612114146930024e-01  5.5043949326222630e-01  5.1847630237134601e-01  8.5777134540538524e-01  5.4312002072152377e-01  8.6077804976241390e-01  8.1482397354940195e-01  9.3280279282168577e-01  5.3779994529805353e-01  5.4266491834539032e-01  5.3694761558905313e-01  5.3155587807447879e-01  3.0317768465111922e-01  5.3274838319767048e-01  5.3353128507609937e-01  5.3786590768021014e-01  5.3850367061751303e-01  5.3724804865302489e-01  2.4064491646708122e-05  5.5056892690701187e-01  5.3520087602939348e-01  5.3438441214263854e-01  5.3469199724338579e-01  7.6329929283853737e-01  5.1630787478304152e-01  9.2814061932384939e-01  5.6850562079597511e-01  5.3820811715329786e-01  7.5871726117939575e-01  1.3185940312132149e-01  1.3320995422028067e-01  6.0377482759662571e-01  3.4566892114102415e-01  4.6377498393107058e-01  5.4814293133889713e-01  5.3792009884798653e-01  5.4110517348552056e-01  5.4451673569230530e-01  4.9124701030551943e-01  5.4846079575083029e-01  2.7853156632664650e-01  5.0719909092709592e-01  9.9999947301596781e-01  4.1920800004313002e-06  9.9999996879692055e-01  5.3341748367388886e-01  4.7444780033566031e-01  5.1438141191788567e-01  1.6845902212353443e-02  5.6305582159043066e-01  5.6593103152888924e-01  3.7766842785680488e-01  7.6213342500702264e-01  5.3522479905336340e-01  5.3506722896858572e-01  5.4367729421999578e-01  5.4511276624655935e-01  5.3968181414387584e-01  4.9375150437148818e-01  5.4074904296414461e-01  4.9621672656288979e-01  4.7397521073076176e-01  4.7455299244860444e-01  4.2496799156750265e-01  5.7135522048612075e-01  5.3236269265019609e-01  4.4029252855328127e-01  5.0699612460764387e-01  5.8298264323096449e-01  5.5565395242400473e-01  5.9718336773894154e-01  5.3346518626536976e-01  2.5745894381578860e-01  5.7664418448608179e-01  6.0450050456780080e-01  6.3006311323393416e-01  5.7124873383640828e-01  6.5153583850505103e-01  5.3090279169800159e-01  5.3414752186845060e-01  5.3304032690847802e-01  1.6533428421961555e-02  5.4265911405793110e-01  3.1706483158249904e-01  6.4487965138114933e-01  6.6967254873687576e-01  5.4032682935969600e-01  5.3914126967021558e-01  5.5682630880404038e-01  6.4525157110021203e-01  5.3273105928666009e-01  5.9849679225208752e-01  5.3948154717965369e-01  5.3105744819413614e-01  5.2992246601748183e-01  5.2256078499647907e-01  5.3833455306675237e-01  6.6700282592867299e-01  5.1956533963013540e-01  5.0083301140679326e-01  5.7929064658205176e-01  5.3475558950452062e-01  5.3393553197503474e-01  5.3198964583150565e-01  5.5336225678961326e-01  5.7235729371325061e-01  9.9999305177848841e-01  5.3709877342732537e-01  5.2653631490106201e-01  5.2965346360285004e-01  8.0899848581270828e-01  1.9794166868019139e-01  9.1536702291365979e-01  3.0573313303199201e-01  1.4905253354575731e-03  2.5742364375927118e-01  -1.1379448037090742e-22  7.5539019999784348e-07  -4.7955227863198920e-08  1.0000000000000009e+00  -1.8080573375521595e-22  5.2269294057309901e-02  9.6163001798362224e-01  9.9955038326385803e-01  5.3598564339234589e-01  6.9380267883208768e-01  5.3361208551969275e-01  9.9999993841293189e-01  6.2649159154682010e-01  4.4655703716476597e-01  7.2500581658671115e-01  4.6178507205356001e-01  9.9999998873911899e-01  5.3786615418157735e-01  6.1165674291017136e-01  5.4958269915107871e-01  5.3653394913101948e-01  5.3301239619163909e-01  5.2948759877296192e-01  5.2829677459742153e-01  5.2686989605949064e-01  5.3066162021863228e-01  5.2851733042389726e-01  5.6109623080145254e-01  5.1210623177297154e-01  5.4621545993487441e-01  5.3802531789488650e-01  5.1132816872895537e-01  5.3793330773147563e-01  5.5696103790189744e-01  5.6043599905616215e-01  5.3032037948990107e-01  2.9345647621903231e-01  4.1326239510085755e-01  5.2910899333625494e-01  5.3562199374566388e-01  5.3941361817117139e-01  5.3550315656500980e-01  5.1585542566815812e-01  5.3410569202442870e-01  5.3740336498602059e-01  9.8816152668336255e-01  6.0972359567777445e-01  6.0350245639575417e-01  5.7990715461624220e-01  5.3871304831494227e-01  8.1621980093591216e-05  5.3896507618909273e-01  3.5863065084918182e-08  9.9485605043651182e-01  5.9958163435468026e-01  5.3728939546455134e-01  5.3500180608261072e-01  5.2424709894671484e-01  5.3190316120211889e-01  5.3582000395113871e-01  6.9055910330943360e-01  5.4756686099365892e-01  5.7880936876687938e-01  9.9999380345808564e-01  3.5112518691274069e-01  5.3441403850445113e-01  5.3584314639857866e-01  5.2634732520698213e-01  4.9214218898780838e-02  1.6677695020363903e-01  1.2890953674731759e-01  5.5088904935152050e-01  5.4860592054060042e-01  5.3603796669894821e-01  5.8886589916035470e-01  5.6199649645579375e-01  5.4181526631638177e-01  5.4520717707621669e-01  3.8814306814343369e-01  5.3886955351245769e-01  7.3446465484055801e-01  5.2414361402979093e-01  5.1591661574984393e-01  6.6042036430396800e-01  5.3502226734665359e-01  4.8425966147140420e-01  5.5501175168880368e-01  5.8028705360530575e-01  2.9516628886019913e-01  5.3743833858905599e-01  5.3823139116557772e-01  5.3632748109604522e-01  5.9090244205985620e-01  4.6715305332810569e-01  4.6808822972196834e-01  9.9999991056265314e-01  5.3718724071205759e-01  5.3915090352135797e-01  5.0808988548010670e-01  5.2657939169496981e-01  4.7809798069813830e-01  9.3687412284444092e-05  5.0341468645882759e-01  5.2302067224151660e-01  4.3396398827219995e-01  6.1123770043642967e-01  7.5331764251144073e-01  5.3798254483584629e-01  5.6880491457266813e-01  5.3602757819625924e-01  5.1145283918811613e-01  5.1159262124273930e-01  1.3577320275805256e-07  4.9295157356864072e-01  5.3973330026092137e-01  4.7544885495335015e-01  5.3539303822085749e-01  5.5144890816427350e-01  3.3764064555896589e-01  1.1194397655602688e-02  5.3713784393985065e-01  5.3636127189784566e-01  5.5378589712476012e-01  5.4604001323552032e-01  5.2732630189398266e-01  5.2579338236839690e-01  4.9647611590289847e-01  5.3711390537029413e-01  5.2878292219572631e-01  7.4372710180184864e-01  5.2933098350737164e-05  4.6083960926114560e-04  9.9995175066014597e-01  4.3665931585672979e-01  5.4216660415948514e-01  8.7600757069696344e-01  8.9192619516437965e-01  9.2366629401176792e-01  8.1462621360792198e-01  5.3787964786636089e-01  5.3562831362674812e-01  5.4656302988388727e-01  5.2246920843656430e-01  5.3117060665868454e-01  4.8198732916240117e-01  5.3462605649179840e-01  5.5226375062370026e-01  5.6830824951398506e-01  5.7387781331225818e-01  5.5694470301921068e-07  7.1222849741732830e-01  9.9999988053120481e-01  5.3654878439476672e-01  5.2667459067989653e-01  6.0906193327041624e-01  5.2095779562107647e-01  5.0541819377207864e-01  7.1343155587902785e-01  9.9860470328845952e-01  5.8696485259735094e-02  6.0000973274484137e-01  2.4478729703961775e-06  4.7329852944636347e-01  4.5970641892615777e-01  9.9993503032255093e-01  9.9974662605928610e-01  3.9313526617987471e-04  5.5786377069139348e-01  5.6204996198939217e-01  6.9485176488929812e-01  5.2106511318538129e-01  5.4700707596108933e-01  9.9998863318134035e-01  1.2293791036166453e-03  4.8622770799987525e-01  1.5864916512170810e-01  9.4178022579911058e-01  9.7207266339591103e-01  5.3446889714679424e-01  5.3081976293527411e-01  5.6505022832815699e-01  5.3528033314040302e-01  5.3470168050933087e-01  5.3486943437260814e-01  5.3528462802594912e-01  5.2734409052950071e-01  5.4302532158613059e-01  5.1914538476759320e-01  5.3298843004772078e-01  5.3185989009442525e-01  7.1355221370950905e-01  5.4110790067837888e-01  6.2634246821130579e-01  5.5065508200985647e-01  5.3266413369919186e-01  5.3410089077045009e-01  5.3384404577089994e-01  5.3433041670590464e-01  5.3467681055867589e-01  3.2013410068104114e-01  3.3708289463350444e-01  2.9872481916877036e-01  5.7132985429907335e-01  5.4280061237772792e-01  5.4188066496013043e-01  5.4027600141136534e-01  6.7592695890668875e-01  5.4121164758969809e-01  5.3843775098540281e-01  5.4738323837709268e-01  5.4065612599601043e-01  5.3964121381222674e-01  5.3814308298024227e-01  7.8833187874294641e-01  7.2384413568201988e-01  5.3517349468562569e-01  6.1956002484155870e-01  5.3917587411097412e-01  5.3713213869765175e-01  5.4047928063121420e-01  5.4479941583325964e-01  5.4100591226220762e-01  5.4346989084131558e-01  5.4259662412322740e-01  5.3692685830838538e-01  5.4484665687751066e-01  5.3657518507844759e-01  5.3684398477275552e-01  5.1883078740976563e-01  5.4849111515051929e-01  5.3732137392826518e-01  6.6829933953064968e-07  5.4799311076536006e-01  5.5558274189847101e-01  1.8685720417356888e-01  5.1772751254959570e-01  6.8397798063515647e-01  6.7392868762961866e-01  5.8170997568730454e-01  2.0391624805126612e-01  2.5768996217142787e-01  5.3838235996668504e-01  5.3225547425567954e-01  6.2861198631849780e-01  6.3149965533641472e-01  4.6647366737696183e-01  5.3509601270364315e-01  5.3502541244334523e-01  5.3532871776810564e-01  5.1445962014065538e-01  8.3076030003987444e-01  5.3481137955379277e-01  5.2575240196668716e-01  5.4873875502375002e-01  5.3744356211382160e-01  5.1729847806553597e-01  5.2659397617686865e-01  4.9948612783283297e-01  5.1429402578590533e-01  5.3514378694580611e-01  4.6725570477284578e-01  4.4382935160509351e-01  4.5681433297997670e-01  9.9999959286765372e-01  8.0476313144718301e-02  5.2461206008177041e-01  5.2552664105106972e-01  5.3483946504207569e-01  3.6879444014263646e-01  5.5580243238824756e-01  4.9873223820847584e-01  5.3825545996890634e-01  8.4912910884532687e-06  3.7300337229179803e-01  5.1323371979871701e-01  5.4024861111842359e-01  4.0056567797534505e-04  5.6118079782003427e-01  5.6467236986497282e-01  5.5485445824509161e-01  2.8575213301271746e-01  2.2142643756141325e-01  9.9998203565495680e-01  5.1628605596209354e-01  7.6703967570754406e-01  6.2124303231741651e-01  5.5764962531686368e-01  5.3679934122755002e-01  5.4769777312720280e-01  5.3741446991346153e-01  3.5389852082503809e-01  9.9891689727035782e-01  9.9989624381903841e-01  2.5855648342308288e-02  5.3586058143290594e-01  4.7546214752538847e-05  3.5959798425891872e-03  1.3158765995576957e-01  3.9044445017848828e-01  9.9999844796678039e-01  9.2347732761914147e-01  9.9999018470060230e-01  4.9559533083604079e-01  5.3301451679467848e-01  7.5584238588504449e-01  5.3319610953264596e-01  1.0000003636659145e+00  3.5611244571402351e-01  3.8891420459095671e-01  5.6517208188359758e-01  4.0095921345051644e-01  6.4940047770572928e-01  6.5946907845728431e-01  5.3733212187510160e-01  5.3541444083657663e-01  3.7886722526716565e-01  5.3761521029816928e-01  5.3767586821766311e-01  5.3810033882063291e-01  5.6383140458373215e-01  5.5289168457923454e-01  9.9999999363983261e-01  5.0866317765032865e-01  4.4392974729762474e-01  5.4477361477854480e-01  7.8581570325546390e-01  8.1636630454742698e-01  5.3859768643660211e-01  5.3360150424771580e-01  2.9075876849445774e-06  4.7648275549950203e-01  5.6591358854104834e-01  5.1793583394676612e-01  5.2120518832679252e-01  5.2264967284454744e-01  5.3650399268051796e-01  5.3007037647336774e-01  5.0699505364631881e-01  5.0315039039589771e-01  5.1717051714519235e-01  5.3839655393332897e-01  4.5040109174681758e-01  7.4039282327264233e-01  4.3786813587874912e-01  6.1382813458698038e-01  5.9493204390827359e-01  5.9283933514976306e-01  9.8340247627926614e-01  9.5395885669647729e-01  1.6694761770107164e-02  5.508457242792592