<?xml version="1.0"?>
<VTKFile type="UnstructuredGrid"  version="0.1"  >
<UnstructuredGrid>
<Piece  NumberOfPoints="1079" NumberOfCells="1944">
<Points>
<DataArray  type="Float64"  NumberOfComponents="3"  format="ascii">0.08500000000000001 0.02 0  0.005 0.02 0  0.005 0.03 0  0 0.03 0  0 0 0  0.005 0 0  0.005 0.01 0  0.08500000000000001 0.01 0  0 0.015 0  0 0.0075 0  0 0.0225 0  0.04500000000000001 0.02 0  0.04500000000000001 0.01 0  0.025 0.01 0  0.025 0.02 0  0.065 0.02 0  0.065 0.01 0  0.035 0.02 0  0.035 0.01 0  0.07500000000000001 0.02 0  0.07500000000000001 0.01 0  0.015 0.02 0  0.015 0.01 0  0.05500000000000001 0.01 0  0.05500000000000001 0.02 0  0.07000000000000001 0.01 0  0.07000000000000001 0.02 0  0.05 0.01 0  0.03 0.01 0  0.03 0.02 0  0.04000000000000001 0.01 0  0.01 0.01 0  0.02 0.02 0  0.06 0.015 0  0.08500000000000001 0.015 0  0.05 0.02 0  0.07250000000000001 0.015 0  0.04000000000000001 0.02 0  0.03750000000000001 0.015 0  0.0525 0.015 0  0.02 0.01 0  0.01 0.02 0  0.0275 0.015 0  0.0125 0.015 0  0.08000000000000002 0.01 0  0.08000000000000002 0.02 0  0.0325 0.014375 0  0.04291666666666667 0.015 0  0.065 0.015 0  0.005 0.005 0  0.005 0.015 0  0.02208333333333334 0.015 0  0.07791666666666668 0.015 0  0.005 0.025 0  0.06 0.01 0  0.06 0.02 0  0.01729166666666667 0.01572916666666667 0  0.04770833333333334 0.01427083333333334 0  0.06875000000000001 0.01625 0  0.008750000000000001 0.01625 0  0.05625000000000001 0.01625 0  0 0.00375 0  0 0.01875 0  0 0.01125 0  0 0.02625 0  0.08145833333333334 0.01354166666666667 0  0.0675 0.01 0  0.0075 0.0125 0  0.0625 0.0175 0  0.0575 0.0125 0  0.0625 0.0125 0  0.08207465277777778 0.01707465277777778 0  0.06767857142857144 0.01321428571428571 0  0.0175 0.01 0  0.01875 0.01291382575757576 0  0.0475 0.02 0  0.04564168086314595 0.01679860519591141 0  0.00296875 0.0125 0  0.0025 0.03 0  0.0025 0 0  0.00296875 0.0175 0  0.01521990740740741 0.0132349537037037 0  0.0497800925925926 0.0167650462962963 0  0.0325 0.02 0  0.03474264705882353 0.01674632352941176 0  0.03750000000000001 0.02 0  0.03025735294117647 0.01674632352941176 0  0.0275 0.02 0  0.0525 0.02 0  0.0125 0.01 0  0.04020833333333334 0.01322916666666667 0  0.03750000000000001 0.01 0  0.0225 0.02 0  0.02479166666666667 0.01677083333333333 0  0.07520833333333335 0.01322916666666667 0  0.07250000000000001 0.01 0  0.07520833333333335 0.01677083333333334 0  0.07250000000000001 0.02 0  0.04020833333333334 0.01677083333333333 0  0.0225 0.01 0  0.02375 0.01262152777777778 0  0.04250000000000001 0.02 0  0.04250000000000001 0.01 0  0.07750000000000001 0.01 0  0.07750000000000001 0.02 0  0.05036151960784314 0.01294424019607843 0  0.0705560064935065 0.01284699675324675 0  0.05458333333333334 0.01291666666666666 0  0.0021875 0.024375 0  0.005 0.0275 0  0.01125 0.0175 0  0.01463848039215686 0.01705575980392157 0  0.01 0.01375 0  0.03625 0.0125 0  0.0021875 0.009375 0  0.05375000000000001 0.0175 0  0.07125000000000001 0.0175 0  0.005 0.0025 0  0.0021875 0.005625 0  0.02655220103578155 0.01234889948210923 0  0.002187499999999999 0.020625 0  0.02979166666666667 0.01302083333333333 0  0.0525 0.01 0  0.07895833333333334 0.0125 0  0.01994277885235332 0.01704213007736944 0  0.07934656179076068 0.01733823814273861 0  0.04505722114764669 0.01295786992263056 0  0.06625 0.0175 0  0.006250000000000001 0.0175 0  0.05750000000000001 0.02 0  0.05875000000000001 0.0175 0  0.005 0.0225 0  0.005 0.0075 0  0.002375 0.027375 0  0.002375 0.002625000000000001 0  0.0475 0.01 0  0.0175 0.02 0  0.0325 0.01 0  0.03375 0.0121875 0  0.04261299435028249 0.01749205508474576 0  0.08500000000000001 0.0125 0  0.08250000000000002 0.01 0  0.02121963399965531 0.01224824108143494 0  0.0675 0.02 0  0.0125 0.02 0  0.02720152243589744 0.0175 0  0.03715165441176471 0.0175 0  0.08500000000000001 0.0175 0  0.0275 0.01 0  0.0025 0.0149560546875 0  0.0075 0.01 0  0.0075 0.02 0  0.06526785714285716 0.0125 0  0.01281031447005516 0.0125 0  0.0625 0.015 0  0.06 0.0125 0  0.05750000000000001 0.01 0  0.0625 0.02 0  0.0625 0.01 0  0.08250000000000002 0.02 0  0.04260103740101855 0.01252623201412851 0  0.02240052247582197 0.01750164767101344 0  0.07293583459427785 0.01238479732953041 0  0.005234374999999999 0.012265625 0  0.03528131980640358 0.01454684009679821 0  0.0325 0.01760027210036557 0  0.02532593822924343 0.01428227733767297 0  0.08009952069819683 0.01527145502895417 0  0.01987282359856536 0.01482587683689801 0  0.04828232595121382 0.01210233572595705 0  0.01671767404878618 0.01789766427404295 0  0.05125 0.01829007549029352 0  0.05247215456215357 0.01288882122882024 0  0.07338729919678716 0.01799385040160642 0  0.03838729919678716 0.01200614959839357 0  0.07717482110586968 0.01780301674207099 0  0.04771860040890012 0.01773306039388322 0  0.03125 0.01160380747126437 0  0.06875000000000001 0.01154265873015873 0  0.07625000000000001 0.01154065860215054 0  0.01625 0.01153997817696946 0  0.068125 0.018125 0  0.05437500000000001 0.015625 0  0.066875 0.015625 0  0.07039794950204951 0.01494384850614853 0  0.05687500000000001 0.018125 0  0.006875 0.015625 0  0.008749999999999999 0.01833333333333333 0  0.010625 0.015625 0  0.05625 0.01416666666666667 0  0.05812500000000001 0.015625 0  0.0449088595298192 0.01494528408816316 0  0 0.016875 0  0 0.013125 0  0.04962452342047931 0.01478673066448802 0  0.0153754765795207 0.01521326933551198 0  0.0771774565913315 0.01322498191305479 0  0.01857756431135545 0.01840228599899994 0  0.04642243568864456 0.01159771400100006 0  0.08125000000000002 0.01155637254901961 0  0.08317650804863432 0.0118234919513657 0  0.08288217288011697 0.01511353252923977 0  0.02837253504384828 0.0117177464035174 0  0.03896057962520807 0.01831163685754031 0  0.01125 0.0114244162490927 0  0.00935910490099115 0.0119067901980177 0  0.02946078431372549 0.01495404411764706 0  0.02875 0.0185829434466942 0  0.002968749999999999 0.0225 0  0.064375 0.016875 0  0.00296875 0.0075 0  0 0.001875 0  0 0.005625 0  0 0.009375 0  0 0.020625 0  0 0.024375 0  0 0.028125 0  0.06062500000000001 0.01812500000000001 0  0.008303571428571429 0.01446428571428572 0  0.01375 0.01865917058160413 0  0.05137790313978056 0.01143372888932909 0  0.04125000000000001 0.01131513063942604 0  0.04101690263896279 0.01844430285842771 0  0.02399563533148224 0.01844349395710867 0  0.08125000000000002 0.01868815426145731 0  0.05354684380692146 0.01145463537600848 0  0.01699195823639423 0.01315138909884649 0  0.07598357371794873 0.015 0  0.04098357371794872 0.015 0  0.003744047619047619 0.00375 0  0.003344630281690141 0.02580853873239437 0  0.04625 0.0187354532243972 0  0.06388392857142858 0.01138392857142858 0  0.06375 0.01375 0  0.05875 0.01375 0  0.06375 0.02 0  0.00622802734375 0.01372802734375 0  0.003630681818181818 0.001369318181818182 0  0.003630681818181818 0.02863068181818182 0  0.06125 0.01625 0  0.06125 0.01125 0  0.05625000000000001 0.01 0  0.05875 0.01125 0  0.06125 0.01375 0  0.08337864763241221 0.0183786476324122 0  0.05213634138653413 0.01674432930673294 0  0.04375000000000001 0.01 0  0.07424178685897437 0.01529258578431373 0  0.03924178685897436 0.01529258578431372 0  0.03410139294454583 0.01843406022904556 0  0.03089860705545417 0.01843406022904556 0  0.02094160484316717 0.01850229584291991 0  0.04375000000000001 0.02 0  0.04437042160883325 0.01820701498672512 0  0.04816311705429156 0.01600061344661149 0  0.07151224904251052 0.0114127410511319 0  0.04395528506193162 0.01639387970349481 0  0.0128750358694518 0.0167500179347259 0  0.02855808448399799 0.01642839899839741 0  0.02812690373330794 0.01340955081400569 0  0.08358500641945087 0.01351822349116885 0  0.05590277777777778 0.01173611111111111 0  0.06683110430364615 0.01164926404662283 0  0.02573206694914602 0.01842532451809762 0  0.01438126661842046 0.01166701193099454 0  0.02384283211216029 0.01526549696571563 0  0.03625 0.02 0  0.004609375000000001 0.0182421875 0  0.003398437500000001 0.01943359375 0  0.001728307845744682 0.01894718251329787 0  0.004377805359085963 0.01656966216675735 0  0.04649673309852075 0.0153889662370871 0  0.03615513600614297 0.01592654988586041 0  0.03316985071935832 0.01598763605018279 0  0.03110111603888768 0.01529816275177977 0  0.01370614113484869 0.0138804542047638 0  0.04930041102671841 0.01842260568883502 0  0.07875000000000001 0.02 0  0.0745395359848485 0.01165101111925709 0  0.03860755698543604 0.01373741558556884 0  0.02605038706571737 0.01573944002207753 0  0.07559826163500957 0.01841729376139847 0  0.04437500000000001 0.01149157931286774 0  0.06874116707361365 0.01454618473032123 0  0.003761917372881356 0.0239307468220339 0  0.003984374999999999 0.01125 0  0.003768503289473684 0.01392539576480263 0  0.001796875 0.0111328125 0  0.003761917372881356 0.008930746822033899 0  0.005 0.00625 0  0.003761917372881355 0.0210692531779661 0  0.06633928571428571 0.01410714285714285 0  0.006484375 0.01125 0  0.08364120589325512 0.01657288979763549 0  0.03576267476503373 0.0184116442851204 0  0.07370875846579374 0.0137848203678562 0  0.06964285714285715 0.01758928571428571 0  0.05520833333333334 0.01833333333333333 0  0.06491071428571429 0.01839285714285714 0  0.0510098951944636 0.01559941474766356 0  0.01786087179886325 0.0115702210443714 0  0.01972197383235524 0.01160576093166696 0  0.01804697593127788 0.01433503795474974 0  0.001644074528704677 0.01642892723865279 0  0.00125 0.03 0  0.001497685185185185 0.001267746913580247 0  0.07315451164202422 0.01643443118912983 0  0.001233906745910645 0.0140625 0  0.01162635071030191 0.01362229857939618 0  0.01528023503083844 0.01845923557506155 0  0.06625 0.02 0  0.07695012019230771 0.01624387078484555 0  0.03139091092855769 0.01320776147621796 0  0.03857339107781042 0.01675295051810485 0  0.001754993120977522 0.02590789105493891 0  0.002288757784711197 0.00412546923654445 0  0.07914382119690884 0.01404430049871201 0  0.001391810103286306 0.01257390899021902 0  0.0419501201923077 0.01614675005432421 0  0.001484375 0.007018229166666667 0  0.001484375 0.02201822916666666 0  0.048
[...]
<PointData  Scalars="concentration"> 
<DataArray  type="Float64"  Name="concentration"  format="ascii">8.1823389469623420e-01  1.0007857819473136e+00  9.9999999999999822e-01  9.9999999999999944e-01  4.0389678347315799e-23  8.6376930374301025e-23  -1.7854129271567044e-03  2.4692030624040182e-01  6.3627853258308797e-01  -4.5431829491404532e-05  9.9986326377211354e-01  9.4612451799258945e-01  9.5391507478918613e-02  1.5584979905741980e-02  9.9433464356993184e-01  8.8211788956401205e-01  1.6992795410708478e-01  9.7346544861138196e-01  4.8432312397143407e-02  8.5246417454939905e-01  2.0919451249831139e-01  1.0002245292864653e+00  -3.4688794452439023e-03  1.3661424679789805e-01  9.1389748205058130e-01  1.9369876916076093e-01  8.7122376617260566e-01  1.1914757550918979e-01  2.8245446980731847e-02  9.8658042537899904e-01  7.6125518469750478e-02  -1.3309743050307908e-04  9.9963257721786425e-01  5.4567538384183578e-01  5.3895205045097982e-01  9.3029854928406808e-01  5.3995166370886638e-01  9.6107720810652697e-01  5.5603021698098842e-01  5.4607913147821741e-01  7.2825966103978622e-03  9.9914710270822915e-01  5.6607665328161549e-01  6.0111814332022984e-01  2.2513374168653805e-01  8.3784364106079878e-01  4.4799722279014437e-01  5.5109644019756432e-01  5.4191886565125569e-01  -5.4112699287164340e-05  6.7022930479755372e-01  5.7723016771526792e-01  5.3954317222918002e-01  1.0000036762125131e+00  1.5867818231360653e-01  8.9880581462812592e-01  7.5563285227003263e-01  4.4402612920337775e-01  6.7665725032506618e-01  9.6609428759179472e-01  7.0109853844829406e-01  4.2083151831352216e-08  9.9999370616124461e-01  -1.6459957582087045e-03  1.0000067998024516e+00  3.9660610579703365e-01  1.8379555795218316e-01  -1.4215513532288447e-02  8.0527034411339171e-01  2.5174959592418233e-01  2.6611749431615317e-01  7.2611586987760368e-01  3.4476454717672278e-01  -2.7010690039937815e-04  1.4174074371826229e-01  9.3976021677437893e-01  7.8520496153903496e-01  8.3660280195691373e-03  9.9999999999999856e-01  3.0073893116855668e-23  9.9655020970181429e-01  1.5428004575340359e-01  7.7013485160629236e-01  9.8121102681434114e-01  8.1365941875367986e-01  9.6718244757614813e-01  8.3458141552626397e-01  9.9452066144876106e-01  9.2070213658723599e-01  5.6200126682767932e-04  2.8404938676763558e-01  6.4250820788141219e-02  9.9884074359809349e-01  8.6191791022313236e-01  3.5797168368540777e-01  1.9697882633526761e-01  7.1512546999579019e-01  8.6036239227424671e-01  8.0071435735420393e-01  8.5881667060784678e-03  1.3147208781309586e-01  9.5673533533839150e-01  8.0946999007875553e-02  2.1081008300104823e-01  8.4837534425366168e-01  2.7892029100745713e-01  3.1454431061191762e-01  2.8504407280277588e-01  1.0000660020970562e+00  9.9999883232249054e-01  9.9937720361533067e-01  9.5990959147382182e-01  1.9341297500248564e-01  1.7811797227884940e-01  4.3298916567362559e-04  8.2778801633090715e-01  7.8359478987308784e-01  -1.9813761143534903e-06  -3.2629337881821581e-06  1.1751857482125359e-01  9.9974392340208407e-01  2.2008811630978792e-01  1.2763763455184984e-01  3.0441193098562180e-01  9.2739326263684008e-01  7.5324856079978342e-01  2.6520703613753355e-01  7.9434104257542948e-01  9.9330234028637276e-01  9.0896880203349839e-01  8.1540791271010127e-01  9.9997432387047958e-01  -2.6997885771901738e-04  1.0000040402535746e+00  2.5199345222558949e-07  1.0786226173979035e-01  9.9927750502090884e-01  4.2084567706618357e-02  1.3773426986754583e-01  8.6451899706320579e-01  3.2549852939394031e-01  2.3174945402463870e-01  7.3382900467970011e-02  8.7500716408570645e-01  9.9990606674334848e-01  9.2485229869731789e-01  8.7703501796577421e-01  7.4477475752944378e-01  2.3627236709271034e-02  6.4013170579554313e-01  7.0199108041359593e-04  1.0014621462167506e+00  2.7200955009213496e-01  3.5623093189426164e-02  5.4212253660394172e-01  2.6278853755846981e-01  1.4629314651294781e-01  8.9343870093069155e-01  1.6394143008987405e-01  8.3348744720039680e-01  2.0928538808802460e-01  9.4971447074149351e-01  2.8185289000058089e-01  -1.0878506072340314e-02  4.7939857868840019e-01  9.0709139248227111e-01  4.2023601573366542e-01  5.6711273144144680e-01  5.4021271736225951e-01  1.8530616828016974e-01  9.9137781720709295e-01  8.8692313059307260e-01  2.7773078533259693e-01  8.0942290773606729e-01  1.4569520753679829e-01  7.8995555149296015e-01  8.6471262618356382e-01  8.5149123829425813e-02  2.1984861735912037e-01  2.4258248978525757e-01  1.3953699681781744e-02  8.2906865418347453e-01  6.2856781229513758e-01  6.1457349050191723e-01  5.3476600027771393e-01  8.6025126490731363e-01  8.5451457942114784e-01  1.0011483651764899e+00  8.0103120078182177e-01  4.3657048484411132e-01  6.2425064453612633e-01  5.4270684446147854e-01  9.9950515079541313e-01  1.9985997669612916e-02  5.1759757228898784e-01  6.5024420572339070e-01  3.6017602168268814e-01  9.9025407623512485e-01  1.4508242334772356e-01  2.5896735869666510e-01  2.7837016077374133e-01  5.5013859828556244e-01  7.3172739271195580e-02  9.2775336412591070e-01  -2.1300558997710099e-03  -1.0426085729921424e-03  5.5535889065111821e-01  9.7350294281489302e-01  1.0000961438283915e+00  7.4655611563650903e-01  2.8559185323408534e-05  -1.4006841380580858e-06  9.7724975154783615e-06  -2.3949774308668794e-04  9.9955953526161168e-01  9.9999657216507010e-01  1.0000018738882621e+00  8.5172394946419172e-01  3.9312269634572966e-01  1.0002802030532219e+00  1.5328317529900429e-01  1.0503030246633001e-01  9.3173803479096218e-01  9.8353081222279537e-01  8.1724166324649095e-01  1.6441892825432855e-01  1.5559860828386884e-01  5.4014551640116537e-01  5.5330580230625426e-01  -4.7661342724885260e-06  9.9999894216969176e-01  9.2476898937672103e-01  1.9600259743593537e-01  3.9359909275155741e-01  3.8952801589481595e-01  8.8657870310585729e-01  1.1092239813185641e-01  7.5752197085829785e-08  1.0000008027046183e+00  6.8963185836083274e-01  1.8208931593964825e-01  1.4198010365129990e-01  1.7279180978450756e-01  3.9240466746101071e-01  7.9824909543026401e-01  7.6308290531458545e-01  9.0119754951696815e-02  5.7151266221765373e-01  6.0017949846799634e-01  9.5017662382330803e-01  9.5910023485002427e-01  9.9098308692138726e-01  9.4897681050927607e-01  9.0381708208667944e-01  6.8326688258901769e-01  2.2290306729205173e-01  7.4536337993051593e-01  9.5437391000805682e-01  8.0321432688400818e-01  2.7287681137177605e-01  4.0158117651349956e-01  1.8823011899850017e-01  2.2145451720512210e-01  9.7352455645348890e-01  1.0207033648602724e-02  6.2335140567176239e-01  9.7536293392053497e-01  1.0000255517770509e+00  9.9930967082121580e-01  9.9890950841530790e-01  9.9424115332382534e-01  6.0602053381340815e-01  7.0297178267630112e-01  7.2254013301102571e-01  6.1512238074850656e-01  2.7206801151591858e-01  8.9906559728347057e-01  8.4317025593543660e-01  2.4191479704676536e-01  3.5321404454197419e-01  7.0779519796916135e-01  8.2255248450627039e-01  1.3155265801733224e-01  4.8948951632313648e-01  1.0000089323999632e+00  5.6903919560059701e-03  1.3070693916488541e-01  2.0881764565665833e-03  -6.1157704545172244e-04  1.1758509211523317e-04  1.0001364160488979e+00  4.3714490967147235e-01  -1.0932775217417784e-03  6.7979173747852251e-01  9.4462803224337333e-01  4.1008114134925677e-01  7.9307091389159590e-01  8.7860401066467719e-01  8.5226243095905685e-01  6.2752198577066920e-01  2.0863767199535824e-02  2.4742866551979284e-02  4.2290797011988196e-01  9.8749540713633499e-01  9.9999999999999944e-01  1.8089577625928183e-07  6.8818548635582155e-01  1.7098415566525826e-01  1.8997925709391009e-01  9.9884966356545879e-01  8.8202522381720128e-01  6.6683102942064942e-01  2.5395561302556346e-01  8.0216325382229681e-01  1.0000037218710791e+00  1.5010309211264418e-06  4.4190808646353669e-01  -2.4264728479931753e-02  7.1978342066502821e-01  3.1127122330669583e-05  1.0001368918483413e+00  3.3434722252504717e-01  1.5347620958315422e-01  9.1222121362764075e-01  4.0541876809076632e-01  2.9185960703040698e-01  9.2240072427282738e-01  3.8138808600873764e-01  7.6652298865937429e-01  3.7604439911995530e-01  4.0256926632680295e-01  1.2848014453228535e-01  7.5901120284391455e-01  3.0676127678518800e-01  2.0318646172375218e-01  5.2446133956869541e-02  1.0314535303587695e-02  1.3943842293497497e-02  4.3530283536600760e-02  3.2270360135564113e-01  4.2745998707324995e-01  2.4185216438540982e-01  9.9998698267932606e-01  7.7617965403005312e-06  6.8648366637822516e-05  6.4528350902703077e-02  9.9999883446913240e-01  3.2935095347357451e-01  2.5136545285972084e-01  8.4956443694239669e-01  7.4088889106064793e-01  7.6997697969150281e-01  8.6232909982195249e-01  8.4337199248640049e-01  1.0046739328059171e+00  9.3471034041601578e-02  5.8560528163134916e-02  9.7430908221389015e-02  1.0051743769961556e+00  9.9756632040031001e-01  7.1600847891361552e-01  6.8430665818839520e-01  8.8819972395488689e-01  8.9605755586060454e-01  3.7442504001898874e-01  9.9966476978146912e-01  8.7389485998487992e-01  1.0006137728382960e+00  1.0004250335901983e+00  9.9791867141242718e-01  6.5206113820912803e-01  7.6086939205207016e-01  6.0818521532883218e-01  5.1643423703103186e-01  4.6893289401577755e-02  2.1948793638758060e-01  4.4924582462071810e-01  7.5301176443069906e-01  8.2805704933259883e-01  6.4113636615456893e-01  5.6812036882654692e-06  9.2009881374446367e-01  3.1900325399102841e-01  2.2143599830415414e-01  2.4681411621037014e-01  1.0006591054464702e+00  1.1215824796244490e-01  1.0010272803502092e+00  7.8400268812278029e-01  6.7582540078168785e-01  1.0190060998446842e+00  5.3620203839830965e-04  -2.3526050142960367e-04  8.5168413962041978e-01  -8.3238446754868112e-04  1.8598547996338718e-01  9.0928047729907102e-01  6.1789923450519202e-01  8.7224333119252773e-01  8.9437427563692196e-01  3.5106510079041653e-01  7.6444955161738914e-01  9.6875428185236364e-03  2.4102260760758237e-01  9.9999933718939205e-01  -1.1967546957505188e-06  1.0000015136694971e+00  2.0558434453446983e-01  3.6867025716945495e-01  4.0373160262312524e-01  -9.5266410310487369e-04  6.5885049974345922e-01  9.3703680395093492e-01  3.3029887518757775e-03  1.0148344022732705e+00  2.6407612803477815e-01  2.3844755402255868e-01  8.7248730607178648e-01  8.7987169971070367e-01  8.5798552962510577e-01  6.7536125775213299e-02  8.5649334518505271e-01  2.3571500640596482e-01  7.9075051195011140e-02  4.9859312866395070e-02  1.3882426297560338e-01  7.0497902054822725e-01  3.8835490595958638e-01  4.2130591414640602e-02  1.0833919607995239e-01  9.5564918945977828e-01  7.4505736046675397e-01  8.1451228146402188e-01  2.1914457593723746e-01  -2.7294010070734605e-03  7.8202254014256634e-01  8.8421498435200474e-01  9.7963120331731757e-01  8.5705598567788022e-01  8.7866936158681286e-01  1.9520799481675297e-01  3.9630397835313758e-01  3.0829598277188625e-01  2.9853531579679946e-04  7.1275385307747419e-01  5.8965376305388943e-02  9.3706089240697521e-01  9.9113506012664832e-01  8.6484777594517748e-01  8.4866064120773810e-01  9.3297535962159650e-01  9.9394579350170842e-01  1.9049104039022691e-01  9.7775809251123169e-01  6.8821608098596065e-01  1.7844513073151036e-01  1.7274108227651544e-01  1.3159486129295864e-01  8.3376149573848324e-01  9.9666820395450828e-01  1.1650746341982737e-01  7.7398557914201513e-02  9.6418935315858179e-01  2.2875778951664111e-01  2.1492155871937668e-01  1.8890170768020159e-01  9.2696120503611668e-01  9.6207520272898872e-01  1.0000138096172744e+00  6.5171315191773116e-01  1.6695193383645857e-01  1.8418761883479770e-01  9.9995350970006625e-01  5.7091484536161096e-04  1.0000419907150644e+00  -1.4704706561190523e-03  4.0707490646765961e-04  1.3258512324963521e-03  8.4970197357823970e-23  7.0248453397595542e-06  3.4704319983621949e-07  1.0000000000000013e+00  1.6602834205406850e-22  1.6505600902309544e-03  1.0033354873340021e+00  1.0000597221837424e+00  4.2272913898905873e-01  9.9821491859204781e-01  3.9286300650211320e-01  9.9999964739492131e-01  9.8877299882373171e-01  3.2232850235845677e-02  1.0006319135442863e+00  3.6577549772650077e-02  1.0000015218577469e+00  8.0360347154212386e-01  9.8724489122604486e-01  9.0033612977892596e-01  5.4216140398653712e-01  3.8631499164006911e-01  2.5541527127343666e-01  1.7753727540874284e-01  1.4763308278814222e-01  2.6169563737168883e-01  1.5513310909338476e-01  9.4482863317220245e-01  1.0013150545340342e-01  9.0878621226942080e-01  8.2625031004339222e-01  2.1042210441774659e-01  7.2880269737037207e-01  9.2459094005947373e-01  8.4441022812582889e-01  4.3737366292855406e-01  3.8465064745206487e-02  3.0357313157375412e-02  2.9325250262645419e-01  4.7620987671728859e-01  8.4258404046745117e-01  3.4424882387991396e-01  2.2189012648783138e-01  3.1263784459926575e-01  5.7198493997322453e-01  1.0004503205102919e+00  7.8674534559264997e-01  9.7100403191363027e-01  8.8019433675811731e-01  8.2974823083986549e-01  -5.1511128633704561e-05  8.3724553272790458e-01  9.2769012465616402e-07  1.0005237041057786e+00  9.0886746074838187e-01  5.7150028279916765e-01  4.1352166187851302e-01  1.5560972944612833e-01  2.7833289727662197e-01  4.2311834286320821e-01  9.9004545793146215e-01  8.0125930848416116e-01  7.1315260052799379e-01  9.9998976364586167e-01  6.9080377782414687e-02  3.0923756532995722e-01  4.6166661810894799e-01  4.2943661145109829e-01  2.9433416172604926e-03  -6.0048705899716514e-04  -2.3266140873874339e-02  8.3335552616345188e-01  6.6482962944575541e-01  4.4401557867273189e-01  8.9299838287364397e-01  6.9471273166465919e-01  8.1848060771650988e-01  8.1902190848247203e-01  1.8093756169872004e-02  7.8988537502178857e-01  1.0008271565743621e+00  2.9595986140785907e-01  1.2005786736329793e-01  9.2963621455919021e-01  3.9189474405755381e-01  4.3489084261542488e-01  8.6281346837795458e-01  9.5999330262369031e-01  2.1519017994683247e-02  6.7847024324938854e-01  7.4471187404651540e-01  5.0222812053783117e-01  7.7525252156653546e-01  2.9913090677629917e-01  4.1099009412595017e-01  9.9999815940720194e-01  5.8806384149784230e-01  7.8348660960391592e-01  2.1351687354912552e-01  5.6788987130473234e-01  6.2712628534825413e-02  -9.1095379002401546e-06  2.7352788636075154e-01  1.7557636562675749e-01  4.3347716337459159e-02  9.6181217455190471e-01  9.9874935975562495e-01  7.9357246181341667e-01  9.4310305866901067e-01  4.7246266680860427e-01  1.1284651689676892e-01  5.0733140675521626e-01  -2.5534188806958521e-07  7.6347011076647556e-02  8.4969956892265264e-01  2.5836717869949061e-01  3.7659586051562127e-01  8.7008063326565144e-01  1.0331207876124590e-01  -5.7222516911631144e-04  6.4886693835917153e-01  5.0223370787377819e-01  9.2127764022883973e-01  6.2980131989829902e-01  2.7581751360845935e-01  2.7307013775297245e-01  8.2608427874099777e-02  5.8663655783219748e-01  5.4117171287577970e-01  9.9261130313406032e-01  -2.7649492908454743e-05  -1.8653888078973949e-04  9.9988782617798944e-01  2.8642293111979572e-01  8.7350652550743546e-01  9.9665959888810685e-01  9.9954414167957950e-01  9.9896876417047009e-01  1.0008975237957878e+00  6.8129802726651756e-01  4.2884426487358368e-01  6.6138568122147479e-01  2.3202197780612321e-01  4.0138804800130201e-01  1.4480610503730770e-01  5.3690407844834898e-01  9.1667066527651364e-01  8.9960740149529383e-01  9.5026543496738680e-01  2.1091778068668011e-07  9.7898602386088840e-01  9.9999938068492822e-01  5.4106677509400192e-01  5.1030572488442738e-01  9.3297448185285570e-01  3.8802650037067699e-01  3.5824102157264820e-01  9.9847296028051080e-01  9.9996073882210113e-01  -6.1504778829226808e-03  9.7406962570488576e-01  -3.5566930527263642e-06  1.2621624085877711e-01  4.2926915084249957e-02  9.9997104395129988e-01  9.9976651541565975e-01  2.4028664376099754e-04  8.8571247140066001e-01  9.3389711208605652e-01  9.7638617207272393e-01  4.4453305071623084e-01  7.0156511850674141e-01  9.9997813892990595e-01  -1.3153617715841865e-04  7.1840279557213338e-02  -1.2228925177615172e-04  1.0015377928717399e+00  1.0015659999142825e+00  2.3148681463842488e-01  4.1107592683121963e-01  6.9403693540124867e-01  3.1560368656954196e-01  2.3205392410229039e-01  2.3618228325400165e-01  5.3088592171067428e-01  3.9423932900817132e-01  6.5836893365864091e-01  1.2729072737859348e-01  2.7534071982611985e-01  1.9282897315083261e-01  9.3564426505088338e-01  6.4896439501613479e-01  8.4163706607039457e-01  6.2843280245585975e-01  4.6533298416815194e-01  2.2126240604002342e-01  2.1956465007130926e-01  2.7650629715748809e-01  3.0320290737780964e-01  1.6439078988995934e-04  3.0731247124903931e-02  -1.8330419779693380e-04  8.9323778281150823e-01  8.7700981071272832e-01  7.7324622893055339e-01  7.3734712234906996e-01  9.1453496691296676e-01  8.6628626785306306e-01  6.4973545176973158e-01  9.0214499355354472e-01  8.1285762778574699e-01  7.6562198812454496e-01  5.8918033758598654e-01  1.0171372082722312e+00  9.6733821566116907e-01  4.8935944192171943e-01  8.0385128021306562e-01  7.1165007477627118e-01  5.7793800967350373e-01  7.7539721187340638e-01  8.3854627190450048e-01  7.1727305420721243e-01  8.2365560711684671e-01  8.1834894919068368e-01  5.5893758797252457e-01  8.8875895522625137e-01  5.4315668742220957e-01  5.9933459153234647e-01  2.0335911890814742e-01  9.0636620097753717e-01  6.4574788831939656e-01  6.8323795392990711e-08  6.3341932106914833e-01  6.8546245938741679e-01  2.8722986944151532e-04  4.4397498173106886e-01  9.9668915707104777e-01  9.6855081362464146e-01  9.1177139697237963e-01  -7.4085096933152027e-03  -1.1769584204296027e-03  7.9879963476934968e-01  1.9480748154676081e-01  9.3156878436745638e-01  9.5161519650935733e-01  4.7336853288239854e-02  2.7267266806792317e-01  2.3983014569131966e-01  2.8960904929039855e-01  1.7110909204271482e-01  1.0002327244533336e+00  5.2783769180495910e-01  4.1548305318268197e-01  7.0539498950538160e-01  6.4622585381417874e-01  3.8450873079968517e-01  4.0247065379401298e-01  8.6332846199131077e-02  1.1716963884852032e-01  2.5172190611917261e-01  1.2363010204505992e-01  3.4721134659610541e-02  1.0888287190207720e-01  9.9999960749101846e-01  5.3354118496511003e-03  1.4647983507601919e-01  1.5321852421882715e-01  3.0470361098237297e-01  6.9141627711041334e-02  7.1746688842567230e-01  4.4067494197868545e-01  8.0668757553054637e-01  -1.1532236327037771e-07  5.6030006769853327e-03  4.5175947351864532e-01  6.2486532963969654e-01  -1.0377288821887213e-05  8.9081303954392776e-01  9.4129138222037878e-01  8.3061388441863360e-01  2.1909855732703331e-02  6.5495463526757568e-05  9.9998860995297745e-01  4.9584183958504879e-01  9.9748756511992631e-01  9.8601674178736731e-01  9.1660580003883096e-01  5.7153730898278698e-01  8.3416128947858326e-01  6.8299392976738393e-01  1.0514350266135236e-02  1.0000822418232980e+00  1.0000206926229396e+00  8.3020395116663195e-04  5.0392941261821123e-01  2.7347577123198726e-06  3.0130046134122209e-05  1.2259105883470145e-02  2.3702539683465912e-01  1.0000031862105965e+00  9.9900852724561440e-01  1.0000077203619642e+00  3.8069087305786237e-01  2.5402071160104917e-01  9.9817242430403652e-01  2.1236592774508253e-01  9.9999215982939038e-01  3.5652829045987496e-02  8.4139179213237505e-02  9.0315512422229027e-01  1.5411424332220819e-02  9.6947765220474680e-01  9.9347400307113964e-01  6.2898962025494398e-01  3.6469030071998360e-01  4.5876046396610068e-02  7.4888509079468690e-01  7.5043461714105886e-01  8.2366055096729318e-01  8.4885933783368861e-01  7.3621878471112379e-01  9.9999395394817880e-01  2.8731039831623290e-01  3.3382005991846364e-01  6.5118691935349127e-01  1.0001578857843760e+00  1.0000659004420391e+00  7.5032061891502888e-01  2.1335556588797053e-01  1.0795547315740515e-05  2.1747443135404568e-01  6.7384380057566184e-01  2.1224137910048715e-01  1.3591596620962887e-01  2.0341410930063855e-01  5.3185101676563873e-01  3.1248707171333368e-01  1.3232125721565727e-01  8.9470855934227392e-02  1.2369311361369682e-01  8.3282866170760272e-01  3.6212005909079935e-02  9.7936952422135415e-01  2.2011997449841036e-01  9.8213599514268835e-01  9.7275571460516763e-01  9.4227148976266495e-01  9.9900891641759959e-01  9.9787885718657998e-01  -2.443