<?xml version="1.0"?>
<VTKFile type="UnstructuredGrid"  version="0.1"  >
<UnstructuredGrid>
<Piece  NumberOfPoints="1079" NumberOfCells="1944">
<Points>
<DataArray  type="Float64"  NumberOfComponents="3"  format="ascii">0.08500000000000001 0.02 0  0.005 0.02 0  0.005 0.03 0  0 0.03 0  0 0 0  0.005 0 0  0.005 0.01 0  0.08500000000000001 0.01 0  0 0.015 0  0 0.0075 0  0 0.0225 0  0.04500000000000001 0.02 0  0.04500000000000001 0.01 0  0.025 0.01 0  0.025 0.02 0  0.065 0.02 0  0.065 0.01 0  0.035 0.02 0  0.035 0.01 0  0.07500000000000001 0.02 0  0.07500000000000001 0.01 0  0.015 0.02 0  0.015 0.01 0  0.05500000000000001 0.01 0  0.05500000000000001 0.02 0  0.07000000000000001 0.01 0  0.07000000000000001 0.02 0  0.05 0.01 0  0.03 0.01 0  0.03 0.02 0  0.04000000000000001 0.01 0  0.01 0.01 0  0.02 0.02 0  0.06 0.015 0  0.08500000000000001 0.015 0  0.05 0.02 0  0.07250000000000001 0.015 0  0.04000000000000001 0.02 0  0.03750000000000001 0.015 0  0.0525 0.015 0  0.02 0.01 0  0.01 0.02 0  0.0275 0.015 0  0.0125 0.015 0  0.08000000000000002 0.01 0  0.08000000000000002 0.02 0  0.0325 0.014375 0  0.04291666666666667 0.015 0  0.065 0.015 0  0.005 0.005 0  0.005 0.015 0  0.02208333333333334 0.015 0  0.07791666666666668 0.015 0  0.005 0.025 0  0.06 0.01 0  0.06 0.02 0  0.01729166666666667 0.01572916666666667 0  0.04770833333333334 0.01427083333333334 0  0.06875000000000001 0.01625 0  0.008750000000000001 0.01625 0  0.05625000000000001 0.01625 0  0 0.00375 0  0 0.01875 0  0 0.01125 0  0 0.02625 0  0.08145833333333334 0.01354166666666667 0  0.0675 0.01 0  0.0075 0.0125 0  0.0625 0.0175 0  0.0575 0.0125 0  0.0625 0.0125 0  0.08207465277777778 0.01707465277777778 0  0.06767857142857144 0.01321428571428571 0  0.0175 0.01 0  0.01875 0.01291382575757576 0  0.0475 0.02 0  0.04564168086314595 0.01679860519591141 0  0.00296875 0.0125 0  0.0025 0.03 0  0.0025 0 0  0.00296875 0.0175 0  0.01521990740740741 0.0132349537037037 0  0.0497800925925926 0.0167650462962963 0  0.0325 0.02 0  0.03474264705882353 0.01674632352941176 0  0.03750000000000001 0.02 0  0.03025735294117647 0.01674632352941176 0  0.0275 0.02 0  0.0525 0.02 0  0.0125 0.01 0  0.04020833333333334 0.01322916666666667 0  0.03750000000000001 0.01 0  0.0225 0.02 0  0.02479166666666667 0.01677083333333333 0  0.07520833333333335 0.01322916666666667 0  0.07250000000000001 0.01 0  0.07520833333333335 0.01677083333333334 0  0.07250000000000001 0.02 0  0.04020833333333334 0.01677083333333333 0  0.0225 0.01 0  0.02375 0.01262152777777778 0  0.04250000000000001 0.02 0  0.04250000000000001 0.01 0  0.07750000000000001 0.01 0  0.07750000000000001 0.02 0  0.05036151960784314 0.01294424019607843 0  0.0705560064935065 0.01284699675324675 0  0.05458333333333334 0.01291666666666666 0  0.0021875 0.024375 0  0.005 0.0275 0  0.01125 0.0175 0  0.01463848039215686 0.01705575980392157 0  0.01 0.01375 0  0.03625 0.0125 0  0.0021875 0.009375 0  0.05375000000000001 0.0175 0  0.07125000000000001 0.0175 0  0.005 0.0025 0  0.0021875 0.005625 0  0.02655220103578155 0.01234889948210923 0  0.002187499999999999 0.020625 0  0.02979166666666667 0.01302083333333333 0  0.0525 0.01 0  0.07895833333333334 0.0125 0  0.01994277885235332 0.01704213007736944 0  0.07934656179076068 0.01733823814273861 0  0.04505722114764669 0.01295786992263056 0  0.06625 0.0175 0  0.006250000000000001 0.0175 0  0.05750000000000001 0.02 0  0.05875000000000001 0.0175 0  0.005 0.0225 0  0.005 0.0075 0  0.002375 0.027375 0  0.002375 0.002625000000000001 0  0.0475 0.01 0  0.0175 0.02 0  0.0325 0.01 0  0.03375 0.0121875 0  0.04261299435028249 0.01749205508474576 0  0.08500000000000001 0.0125 0  0.08250000000000002 0.01 0  0.02121963399965531 0.01224824108143494 0  0.0675 0.02 0  0.0125 0.02 0  0.02720152243589744 0.0175 0  0.03715165441176471 0.0175 0  0.08500000000000001 0.0175 0  0.0275 0.01 0  0.0025 0.0149560546875 0  0.0075 0.01 0  0.0075 0.02 0  0.06526785714285716 0.0125 0  0.01281031447005516 0.0125 0  0.0625 0.015 0  0.06 0.0125 0  0.05750000000000001 0.01 0  0.0625 0.02 0  0.0625 0.01 0  0.08250000000000002 0.02 0  0.04260103740101855 0.01252623201412851 0  0.02240052247582197 0.01750164767101344 0  0.07293583459427785 0.01238479732953041 0  0.005234374999999999 0.012265625 0  0.03528131980640358 0.01454684009679821 0  0.0325 0.01760027210036557 0  0.02532593822924343 0.01428227733767297 0  0.08009952069819683 0.01527145502895417 0  0.01987282359856536 0.01482587683689801 0  0.04828232595121382 0.01210233572595705 0  0.01671767404878618 0.01789766427404295 0  0.05125 0.01829007549029352 0  0.05247215456215357 0.01288882122882024 0  0.07338729919678716 0.01799385040160642 0  0.03838729919678716 0.01200614959839357 0  0.07717482110586968 0.01780301674207099 0  0.04771860040890012 0.01773306039388322 0  0.03125 0.01160380747126437 0  0.06875000000000001 0.01154265873015873 0  0.07625000000000001 0.01154065860215054 0  0.01625 0.01153997817696946 0  0.068125 0.018125 0  0.05437500000000001 0.015625 0  0.066875 0.015625 0  0.07039794950204951 0.01494384850614853 0  0.05687500000000001 0.018125 0  0.006875 0.015625 0  0.008749999999999999 0.01833333333333333 0  0.010625 0.015625 0  0.05625 0.01416666666666667 0  0.05812500000000001 0.015625 0  0.0449088595298192 0.01494528408816316 0  0 0.016875 0  0 0.013125 0  0.04962452342047931 0.01478673066448802 0  0.0153754765795207 0.01521326933551198 0  0.0771774565913315 0.01322498191305479 0  0.01857756431135545 0.01840228599899994 0  0.04642243568864456 0.01159771400100006 0  0.08125000000000002 0.01155637254901961 0  0.08317650804863432 0.0118234919513657 0  0.08288217288011697 0.01511353252923977 0  0.02837253504384828 0.0117177464035174 0  0.03896057962520807 0.01831163685754031 0  0.01125 0.0114244162490927 0  0.00935910490099115 0.0119067901980177 0  0.02946078431372549 0.01495404411764706 0  0.02875 0.0185829434466942 0  0.002968749999999999 0.0225 0  0.064375 0.016875 0  0.00296875 0.0075 0  0 0.001875 0  0 0.005625 0  0 0.009375 0  0 0.020625 0  0 0.024375 0  0 0.028125 0  0.06062500000000001 0.01812500000000001 0  0.008303571428571429 0.01446428571428572 0  0.01375 0.01865917058160413 0  0.05137790313978056 0.01143372888932909 0  0.04125000000000001 0.01131513063942604 0  0.04101690263896279 0.01844430285842771 0  0.02399563533148224 0.01844349395710867 0  0.08125000000000002 0.01868815426145731 0  0.05354684380692146 0.01145463537600848 0  0.01699195823639423 0.01315138909884649 0  0.07598357371794873 0.015 0  0.04098357371794872 0.015 0  0.003744047619047619 0.00375 0  0.003344630281690141 0.02580853873239437 0  0.04625 0.0187354532243972 0  0.06388392857142858 0.01138392857142858 0  0.06375 0.01375 0  0.05875 0.01375 0  0.06375 0.02 0  0.00622802734375 0.01372802734375 0  0.003630681818181818 0.001369318181818182 0  0.003630681818181818 0.02863068181818182 0  0.06125 0.01625 0  0.06125 0.01125 0  0.05625000000000001 0.01 0  0.05875 0.01125 0  0.06125 0.01375 0  0.08337864763241221 0.0183786476324122 0  0.05213634138653413 0.01674432930673294 0  0.04375000000000001 0.01 0  0.07424178685897437 0.01529258578431373 0  0.03924178685897436 0.01529258578431372 0  0.03410139294454583 0.01843406022904556 0  0.03089860705545417 0.01843406022904556 0  0.02094160484316717 0.01850229584291991 0  0.04375000000000001 0.02 0  0.04437042160883325 0.01820701498672512 0  0.04816311705429156 0.01600061344661149 0  0.07151224904251052 0.0114127410511319 0  0.04395528506193162 0.01639387970349481 0  0.0128750358694518 0.0167500179347259 0  0.02855808448399799 0.01642839899839741 0  0.02812690373330794 0.01340955081400569 0  0.08358500641945087 0.01351822349116885 0  0.05590277777777778 0.01173611111111111 0  0.06683110430364615 0.01164926404662283 0  0.02573206694914602 0.01842532451809762 0  0.01438126661842046 0.01166701193099454 0  0.02384283211216029 0.01526549696571563 0  0.03625 0.02 0  0.004609375000000001 0.0182421875 0  0.003398437500000001 0.01943359375 0  0.001728307845744682 0.01894718251329787 0  0.004377805359085963 0.01656966216675735 0  0.04649673309852075 0.0153889662370871 0  0.03615513600614297 0.01592654988586041 0  0.03316985071935832 0.01598763605018279 0  0.03110111603888768 0.01529816275177977 0  0.01370614113484869 0.0138804542047638 0  0.04930041102671841 0.01842260568883502 0  0.07875000000000001 0.02 0  0.0745395359848485 0.01165101111925709 0  0.03860755698543604 0.01373741558556884 0  0.02605038706571737 0.01573944002207753 0  0.07559826163500957 0.01841729376139847 0  0.04437500000000001 0.01149157931286774 0  0.06874116707361365 0.01454618473032123 0  0.003761917372881356 0.0239307468220339 0  0.003984374999999999 0.01125 0  0.003768503289473684 0.01392539576480263 0  0.001796875 0.0111328125 0  0.003761917372881356 0.008930746822033899 0  0.005 0.00625 0  0.003761917372881355 0.0210692531779661 0  0.06633928571428571 0.01410714285714285 0  0.006484375 0.01125 0  0.08364120589325512 0.01657288979763549 0  0.03576267476503373 0.0184116442851204 0  0.07370875846579374 0.0137848203678562 0  0.06964285714285715 0.01758928571428571 0  0.05520833333333334 0.01833333333333333 0  0.06491071428571429 0.01839285714285714 0  0.0510098951944636 0.01559941474766356 0  0.01786087179886325 0.0115702210443714 0  0.01972197383235524 0.01160576093166696 0  0.01804697593127788 0.01433503795474974 0  0.001644074528704677 0.01642892723865279 0  0.00125 0.03 0  0.001497685185185185 0.001267746913580247 0  0.07315451164202422 0.01643443118912983 0  0.001233906745910645 0.0140625 0  0.01162635071030191 0.01362229857939618 0  0.01528023503083844 0.01845923557506155 0  0.06625 0.02 0  0.07695012019230771 0.01624387078484555 0  0.03139091092855769 0.01320776147621796 0  0.03857339107781042 0.01675295051810485 0  0.001754993120977522 0.02590789105493891 0  0.002288757784711197 0.00412546923654445 0  0.07914382119690884 0.01404430049871201 0  0.001391810103286306 0.01257390899021902 0  0.0419501201923077 0.01614675005432421 0  0.001484375 0.007018229166666667 0  0.001484375 0.02201822916666666 0  0.048
[...]
<PointData  Scalars="concentration"> 
<DataArray  type="Float64"  Name="concentration"  format="ascii">6.6467115929768361e-01  1.0000565080979635e+00  9.9999999999999889e-01  9.9999999999999944e-01  9.0876776281460545e-24  9.7081609194062004e-24  5.3588904332655455e-05  4.0717314761710488e-01  6.0206261229472868e-01  3.1999497754537830e-06  1.0000037846662562e+00  8.1849467335048187e-01  2.4816526636038264e-01  1.0567670879236390e-01  9.3771654987504649e-01  7.2894946953367468e-01  3.3970432736786954e-01  8.7433656458002351e-01  1.8055608221876110e-01  6.9501264285917030e-01  3.7669142526099630e-01  9.9096334116596474e-01  2.3867540194815528e-02  2.9950748831137075e-01  7.6942965544527098e-01  3.5995645538536175e-01  7.1281392043527192e-01  2.7541383576495426e-01  1.4288845399989547e-01  9.0615660914137486e-01  2.1816084118157517e-01  2.1428867937637653e-03  9.6682234598310446e-01  5.3762814939675385e-01  5.3632550044463378e-01  7.9312964702304556e-01  5.3632811131541902e-01  8.4590575414822733e-01  5.4149632034759998e-01  5.3753574556735462e-01  6.6340774866094604e-02  1.0000544799254003e+00  5.4702632397811302e-01  5.7370185127562590e-01  3.9134130628987224e-01  6.8039311749748532e-01  4.6733543853566578e-01  5.3945009332832106e-01  5.3662238016534569e-01  -2.9209954119650916e-06  6.1311620323692995e-01  5.5411729247060038e-01  5.3630560345531886e-01  9.9999990687818829e-01  3.2238545578150196e-01  7.4853663931619574e-01  6.8845934097524986e-01  4.7317724306018444e-01  6.0859576762283774e-01  8.7671683596387118e-01  6.3050737972434823e-01  4.5810445478255688e-09  9.9989894889324571e-01  2.1974469270306732e-03  1.0000000176636270e+00  4.7090425911949896e-01  3.5164315232279808e-01  3.1329490430257463e-02  6.8733585002821063e-01  3.7055498524274727e-01  3.8588979411614355e-01  6.2363346780177298e-01  4.3409897834690114e-01  4.3680343665875136e-02  2.2628016702746287e-01  8.0656935854393608e-01  6.9593890793811763e-01  1.3573773686090397e-02  9.9999999999999822e-01  4.3963295325770717e-24  1.0041808770156253e+00  2.3889306252419412e-01  6.8117265387601766e-01  8.9069354916125476e-01  7.2927837397315642e-01  8.6014416542657424e-01  7.4909136122203202e-01  9.2474982406380091e-01  7.8060434241447063e-01  9.2458990894725354e-03  3.6307528812721496e-01  2.0150781471522675e-01  9.5478210570034672e-01  7.7810747758763055e-01  4.4787877457371655e-01  3.6743281190282490e-01  6.2419802344728748e-01  7.0315348097887420e-01  7.1235523182599769e-01  8.6321404459386533e-02  2.2472856373441363e-01  8.3330717653902797e-01  2.3119219408053734e-01  3.8161309765454482e-01  6.8847066411531654e-01  3.7453733929011845e-01  4.2192566712351665e-01  3.8506366071406406e-01  9.9999712658183804e-01  1.0000000032887764e+00  9.5902494747400979e-01  8.8782055808463745e-01  2.7045906769172950e-01  2.8333527023338811e-01  1.3083787010099388e-04  7.1383180289026060e-01  6.6336558305436844e-01  -1.4294329516971700e-07  -3.2084413647865003e-07  2.1626909567967031e-01  9.9999882655597128e-01  3.0250580799686255e-01  2.8822450977692332e-01  4.2638541154394333e-01  8.4136094795497185e-01  6.3936114937665056e-01  3.5801216575870265e-01  6.7541342428455198e-01  9.9866283465198558e-01  7.6064499001968744e-01  6.9839924996065594e-01  1.0000111730475283e+00  -7.4672098134189613e-06  1.0000000296462559e+00  -5.5401403164828694e-08  2.6263927962714012e-01  9.8040986711031342e-01  1.6666087330454124e-01  2.4813227459719137e-01  7.5780300905631981e-01  4.4166129372096352e-01  3.9785736429544161e-01  1.6722574319284245e-01  7.1986039040625560e-01  9.9710814929001867e-01  8.3522518427183345e-01  7.7895129885573344e-01  6.3026717445012537e-01  1.2743298335568312e-01  5.9954198892436961e-01  -3.2034450653521679e-04  9.9973151982927277e-01  3.9320886707224334e-01  1.1202794115499133e-01  5.3676112546712706e-01  3.7994804663569837e-01  3.1031354816593276e-01  7.4015211519062374e-01  3.3165155817330105e-01  6.7413436080717237e-01  3.1703217872942746e-01  8.6687038316190657e-01  4.0863578137397416e-01  -1.7291092268345561e-03  4.8924496926094729e-01  8.1150289900375927e-01  4.4514003466579100e-01  5.4951239682141650e-01  5.2903525501222370e-01  3.1380691253382659e-01  9.3797847584729077e-01  7.5850697842935655e-01  3.7731503065899807e-01  6.7444450881677631e-01  2.6340375431411700e-01  6.5965515653807705e-01  7.5012368447098210e-01  1.9785064800367019e-01  3.7196009645045353e-01  3.9431852774912479e-01  7.3992985156620769e-02  6.9302453911458806e-01  5.8723088777911536e-01  5.7555422784717258e-01  5.3333571228971344e-01  7.3002131691617811e-01  7.7644443079262682e-01  9.9702827916990244e-01  7.2593878582632998e-01  4.7421569661252350e-01  5.8319728333019261e-01  5.3411600530194125e-01  9.7199745366059298e-01  8.6576802778919507e-02  5.1942034770602374e-01  6.0733860494162428e-01  4.5091150230542087e-01  9.4665759616751044e-01  2.8417861086165264e-01  4.0827383520439742e-01  4.1937894281245236e-01  5.4141781333557226e-01  1.8114487646034408e-01  8.1817778902969074e-01  2.0380636778503200e-02  2.3941745785705612e-02  5.3977505730636322e-01  8.9034716059580665e-01  9.9998566889380835e-01  6.5085719251758556e-01  1.5933412200990407e-05  1.4924291588257379e-08  1.3318454955645158e-08  7.9988259571343576e-06  1.0000474400755597e+00  9.9999941311364038e-01  1.0000000173457304e+00  7.1785988889051466e-01  4.2879761893629098e-01  9.8480524722776974e-01  3.0073336145993912e-01  2.4376175507475004e-01  8.1616673388051475e-01  9.1453883579395567e-01  6.6801775654326268e-01  3.1252768472299070e-01  2.4119972789118424e-01  5.3641033758876044e-01  5.4030014098605561e-01  2.9918880312053556e-07  1.0000003715560346e+00  7.9827889767014082e-01  3.5150372606144947e-01  4.5625883280814306e-01  4.4893107643609798e-01  7.3364261025934507e-01  2.0507468579611804e-01  -1.1219811771415704e-08  1.0000000075950040e+00  6.2056611658975691e-01  3.3818219059015964e-01  3.0580470099119911e-01  3.2838076025319557e-01  4.5326580513198539e-01  6.5639923606152106e-01  6.7321575665894773e-01  2.4028419274930610e-01  5.5215418551740492e-01  5.7124471520886033e-01  8.5146980920717552e-01  8.6913333393285641e-01  9.3640767596032559e-01  8.2449634578432374e-01  7.8621773968947384e-01  6.2494618334507746e-01  3.7757097289440916e-01  6.6887238804505711e-01  8.7679577880317272e-01  7.2417030757625511e-01  3.4021202864626088e-01  4.7448164894518308e-01  3.3116937863010593e-01  3.6903651108821683e-01  8.9933336516464313e-01  6.3581572394350694e-02  5.8948612878276940e-01  8.7025441287431915e-01  1.0015201346708427e+00  1.0002784932150373e+00  1.0003199509263967e+00  9.6547044769013124e-01  5.7482380930551702e-01  6.4392759446100756e-01  6.5877952627710668e-01  5.8212484630369254e-01  3.3762226976128967e-01  7.7153942261194630e-01  6.8471826012480741e-01  3.9152347024871348e-01  4.0743101018322836e-01  6.5007422536309056e-01  6.7843072268505067e-01  2.7002427563488129e-01  5.0979284806803282e-01  1.0000000055121887e+00  2.7157099411865776e-03  2.1973927524243075e-01  1.5717068977095998e-04  -6.9780008814994808e-05  4.5938942557226294e-06  9.9997811750182641e-01  4.8128657686733717e-01  -1.3346005893436494e-03  6.0098316390573780e-01  8.4090282737840361e-01  4.7207481302394561e-01  6.7035371801270993e-01  7.4497697920170625e-01  7.1062850746379680e-01  5.8795556171063013e-01  8.9246625022626355e-02  1.0428175425061419e-01  4.4441002872024210e-01  9.5141185942446305e-01  9.9999999999999967e-01  -2.4767354427556877e-08  6.1198319008866753e-01  2.6428800813443798e-01  2.6911869227925989e-01  9.7106879142411529e-01  7.2573393976362977e-01  5.9865171403790751e-01  3.2921943827204314e-01  7.1593302033363915e-01  1.0000000146299559e+00  2.3780575020889285e-08  4.9047261860636321e-01  4.7269663299369094e-03  6.5248203731421883e-01  2.7723747656411122e-06  9.9999260115903510e-01  4.0673815574682537e-01  2.9749794392416823e-01  8.2205447036946322e-01  4.5211539237752829e-01  3.7760699529124769e-01  8.3368681290502478e-01  4.3045442471045886e-01  6.9500952173738773e-01  4.2561596898038961e-01  4.5197960233756196e-01  2.5719385737608802e-01  6.9061824202796485e-01  3.6353904855777258e-01  2.8112434273342635e-01  1.5213072202222755e-01  9.4219127351579279e-02  1.1126285697071189e-01  1.3015624364526635e-01  4.2405323385894250e-01  4.7921401693651156e-01  3.9607603944791370e-01  1.0000016960475142e+00  3.4450257440793122e-06  -6.6256869398242131e-06  1.7615200186816521e-01  9.9999998751589569e-01  3.8143521396666291e-01  3.3362962633125520e-01  7.0023627491007434e-01  6.4408070390704386e-01  6.7446302106158096e-01  7.1339048251326886e-01  6.9434681627989314e-01  9.6579027497193093e-01  2.1564484522258312e-01  1.9358159767956171e-01  2.2423415890024528e-01  9.8423570426264206e-01  1.0001609087786649e+00  6.3688329069053906e-01  6.1449379408000104e-01  7.4601040561457510e-01  7.6177058974378387e-01  4.1928260900293868e-01  9.9901815527258320e-01  7.2671484076865767e-01  9.9863199424246873e-01  9.8733732548772302e-01  1.0017838092133167e+00  5.9399451495950417e-01  6.6658868995663900e-01  5.6862516724380974e-01  5.1406659676327704e-01  1.3215685810080482e-01  3.7376995824477788e-01  4.8111733650254107e-01  6.3774277099667132e-01  6.7577039256276772e-01  5.8503369108923453e-01  1.6013387927412017e-07  7.7667607118489956e-01  4.3461559833648067e-01  3.8762584308532022e-01  4.0097308065588333e-01  9.8668203701104384e-01  2.6945259408151434e-01  9.9877573486704907e-01  7.0706964910861581e-01  6.0732296854685941e-01  9.3982881834126386e-01  -8.8825669553722515e-05  7.4258090117859167e-04  7.6719104214574740e-01  5.3111695221116605e-02  2.7185308571583433e-01  7.6420057925215545e-01  5.7816886729129902e-01  7.1598910380216285e-01  7.4343377334375393e-01  3.9488742696925905e-01  6.7935018256081692e-01  8.2919146491464299e-02  3.2982863088809766e-01  9.9999999717657451e-01  -5.2044479767476751e-08  1.0000000774608790e+00  3.7303377961586570e-01  4.0613177953240631e-01  4.3617681693831001e-01  -5.3480121259493038e-04  6.2028619354506243e-01  8.1586968743252464e-01  7.2063031949527331e-02  9.4036596613401546e-01  4.1479828857081652e-01  4.0302927562495305e-01  7.2852734346695058e-01  7.3801345337755153e-01  6.9950523782064755e-01  2.0963478246428638e-01  7.0650247210742478e-01  3.1852166474902344e-01  1.9558389111321353e-01  1.7566094820443945e-01  2.2808552185667405e-01  6.4912622845552859e-01  4.4792695011550615e-01  1.4523481435986088e-01  2.5080586902228685e-01  8.4940143655823352e-01  6.7397598204342968e-01  7.3566393484161319e-01  3.7863764486218615e-01  2.5736512714145780e-02  7.0766477639801884e-01  7.9685015012757909e-01  9.0440537450518632e-01  7.6201933459058402e-01  7.9287855376291450e-01  3.5283310660736872e-01  4.5867504287440264e-01  4.1378383142974035e-01  9.8645367300258254e-06  6.4037174249731532e-01  1.6255590865983002e-01  8.5372396289814234e-01  9.3522076088415307e-01  7.0745145543387922e-01  6.9122641413516495e-01  7.9882704733353960e-01  9.3132875486024991e-01  3.6175527116092798e-01  8.8233192458940757e-01  6.1885440430180005e-01  3.4634491629354835e-01  3.3749123199554215e-01  2.9340187559185144e-01  6.7681765550095274e-01  9.4541195349810148e-01  2.7854739116321925e-01  2.2352158901016020e-01  8.5298155603937509e-01  3.9476575655324814e-01  3.8052799540099658e-01  3.5596183533390446e-01  7.8711576105171088e-01  8.4252890131164238e-01  9.9999910213562249e-01  5.8741977148581659e-01  3.2251767447676993e-01  3.4217515876128812e-01  9.9541066971704739e-01  3.7901534364944466e-03  1.0007993902609398e+00  3.3547869606253451e-02  -1.2537716392437131e-06  1.7859212986493921e-02  -2.9687832207219658e-23  4.8868156454426167e-07  5.9096053440219939e-08  1.0000000000000009e+00  -1.7330838061272201e-23  3.5525802911882942e-04  9.9960031164306085e-01  9.9991035653647564e-01  4.8454373506905241e-01  9.6036384371473982e-01  4.5451591325864293e-01  9.9999994162770900e-01  9.1403800858021456e-01  1.3857633440842190e-01  9.7347393728847331e-01  1.5603034127611148e-01  9.9999995964777766e-01  6.5747099460679970e-01  9.0132361653298343e-01  7.6253912965775883e-01  5.3654586286594153e-01  4.4969168723022190e-01  3.7484993818980750e-01  3.3394258767227036e-01  3.1479700139119171e-01  3.8195471182349422e-01  3.2468498903287074e-01  8.1404528535295306e-01  2.5478158146831326e-01  7.5647293140303762e-01  6.6892489657693732e-01  3.1603536617965200e-01  6.2851079177193203e-01  7.9295074915372166e-01  7.4484210908450754e-01  4.6789808200855049e-01  1.2855939804666425e-01  1.1981913685651108e-01  3.9171714616218412e-01  5.0234756028363847e-01  6.9067409580011285e-01  4.4789184376075702e-01  3.2838826922058190e-01  4.2212759723911653e-01  5.5368647636592028e-01  9.9985220586315848e-01  7.0996981428121619e-01  8.7928146549758246e-01  7.8433045117619604e-01  6.7910738544995042e-01  -1.1735603020266632e-05  6.8448920329066798e-01  -1.9163853958088255e-07  9.9986952963217179e-01  8.1801916061726976e-01  5.5284725910363808e-01  4.7116201117811268e-01  3.1026354585100652e-01  3.9451853327050318e-01  4.8208253382143862e-01  9.3338939482055772e-01  7.0004522271607061e-01  6.5324759954843770e-01  9.9999977102057369e-01  1.5500291295989455e-01  4.2310843194833286e-01  4.9787118317477874e-01  4.5845360562368948e-01  3.6734548668976915e-04  1.4717319511354320e-02  -1.4507576109696382e-02  7.2524134735826673e-01  6.1680364749064676e-01  4.9312020940818135e-01  7.9864906771374522e-01  6.4058056577513567e-01  6.9340920923928662e-01  7.0490386822360029e-01  9.5271077423139450e-02  6.6279168127916499e-01  9.6981841181279560e-01  3.8182571704776891e-01  2.7266467088880092e-01  8.4490697640250279e-01  4.6209408414644965e-01  4.5476633654971976e-01  7.5023950816171037e-01  8.4985927604791933e-01  9.4453841913813008e-02  6.0246654938333533e-01  6.3773911763577507e-01  5.1924068399247603e-01  7.0399586164358985e-01  3.5709240596660435e-01  4.3379822298597476e-01  9.9999998110042909e-01  5.6125707178244877e-01  6.6212361960414967e-01  3.1438743554719595e-01  5.4884708091524792e-01  1.8990848064506230e-01  -5.0196872914635288e-07  3.4722514427719403e-01  3.1701451905916278e-01  1.4313754405573254e-01  8.7408418401172872e-01  9.7613436916384555e-01  6.5591071020662828e-01  8.2426725168938386e-01  5.0385439505593665e-01  2.6021227444050926e-01  5.0515190600356485e-01  4.0119100083617421e-08  2.1387365883308151e-01  6.9648797608120072e-01  3.2802928803969028e-01  4.5917757542868176e-01  7.4825457061191647e-01  1.9094406943950917e-01  -7.3193583964828847e-04  5.8706544835639474e-01  5.1979778514800201e-01  7.8489029584187064e-01  5.9345338300587291e-01  3.7832937664350180e-01  3.7300557673226958e-01  2.2077991681485690e-01  5.6006742616443306e-01  5.3069344068087676e-01  9.3962961548305346e-01  -4.5704217138428450e-06  -3.3731845617049825e-05  1.0000053736538410e+00  3.4475330715210317e-01  7.2259654247779903e-01  9.9520823019857252e-01  9.9941275953073061e-01  1.0011995002092386e+00  9.7454331269781747e-01  6.0762540021946143e-01  4.8229175942406033e-01  6.1423870717420581e-01  3.4447337073216572e-01  4.5079892850056424e-01  2.4995161432142288e-01  5.2927124493454425e-01  7.7883173988425325e-01  7.9169360125918253e-01  8.3570970631838093e-01  1.4895413039995848e-08  9.1578530186687201e-01  9.9999999326088329e-01  5.3673538404681853e-01  5.0918607529882054e-01  8.4213242241115494e-01  4.2943640051130999e-01  4.0323967626919316e-01  9.6567522250429627e-01  1.0000286182843483e+00  -2.0415805650606396e-03  8.7974771807140628e-01  -8.8432180929431289e-07  2.3060925843542160e-01  1.5908630819206643e-01  1.0000177221903221e+00  1.0000375827509993e+00  3.4343161653361215e-05  7.6868335247271924e-01  8.0821168431440793e-01  9.1389055166030120e-01  4.6426010893571962e-01  6.3906389735419800e-01  1.0000045426587323e+00  -7.5206325407194014e-05  2.0358458662967560e-01  2.6246437504287307e-03  9.9913642852370277e-01  9.9907069850973584e-01  3.9274296218711724e-01  4.5526508217039408e-01  6.4222189192925527e-01  4.3440805002256833e-01  3.9543246076645450e-01  3.9888638378184871e-01  5.2640337593303232e-01  4.4014779291110590e-01  6.0962158638342656e-01  2.8300075284549919e-01  3.9900986062222848e-01  3.5683755225316194e-01  8.5897218919007523e-01  6.0173410543441386e-01  7.5917006421861488e-01  5.9294517608087760e-01  4.8709379133120217e-01  3.8459151249359974e-01  3.8212043625122483e-01  4.0908063906348491e-01  4.2300675663176335e-01  4.4398816373543662e-02  1.0558457525084318e-01  3.5478038339599213e-02  7.8946799183396588e-01  7.2701172170877648e-01  6.7066036120637162e-01  6.4631305690733432e-01  8.2658773473913560e-01  7.1374088100426347e-01  5.9621627356905837e-01  7.5737454183797481e-01  6.8510047209800906e-01  6.5676255508133352e-01  5.6418991894282311e-01  9.5650427589821574e-01  8.9521307344257450e-01  5.0665580087312845e-01  7.2725050444217398e-01  6.2907523642074670e-01  5.5644656082543298e-01  6.6570096140896529e-01  7.1431994010209354e-01  6.3829262529286124e-01  7.0220355349633923e-01  6.9633621006063773e-01  5.4588438346970136e-01  7.4142565802562710e-01  5.3827796556487861e-01  5.6369486577850603e-01  3.2231568976208841e-01  7.6330316261366626e-01  5.8763163756419656e-01  -1.1205616090787572e-08  5.9565360244714305e-01  6.3408031745391713e-01  6.6694914531794675e-03  4.6352550589905628e-01  9.5074873032264251e-01  8.9290330014595543e-01  8.1104808049412547e-01  2.7940611806933111e-02  3.9869775584953762e-02  6.6223362580552969e-01  3.6017666815244154e-01  8.4700019161333961e-01  8.6909901903290132e-01  1.6831380763169856e-01  4.1546124945377927e-01  4.0253914624251136e-01  4.2536388256444296e-01  2.9743898050738821e-01  9.8977163076328090e-01  5.2374471482949281e-01  4.4926494844356307e-01  6.4339650523359582e-01  5.8910721949924727e-01  4.2513087960050067e-01  4.4366082148462888e-01  2.2730077023442652e-01  2.6776683843259697e-01  4.0886565486074677e-01  2.2469570470228484e-01  1.4020968069355605e-01  2.0890986331503517e-01  1.0000001663359213e+00  1.9478169206807699e-03  3.0666410236096303e-01  3.1278526456202299e-01  4.2497429075942844e-01  1.5381774333640158e-01  6.5518998217934565e-01  4.6031711076349235e-01  6.6434721268790742e-01  -5.9859702077709157e-08  7.4722031275003264e-02  4.6683976292454787e-01  5.8683202247514377e-01  -1.0523082507206102e-06  7.7701487555076276e-01  8.1693999774456827e-01  7.2887398041385676e-01  1.0174106302723655e-01  1.1846685815936670e-02  9.9999748113838927e-01  4.9857530893254137e-01  9.5576070695352033e-01  9.0631765858767155e-01  7.8904636239396087e-01  5.5204368552905492e-01  7.1902403477895960e-01  6.0408271025188676e-01  7.1236541663704911e-02  9.9999305554481921e-01  1.0000005722911365e+00  1.8247979683083977e-04  5.1580102432845820e-01  8.0660657680864270e-08  -5.7284321921658009e-07  1.9889758767053140e-02  3.0031862981453256e-01  1.0000000086265690e+00  9.9778919900215646e-01  9.9999995524570873e-01  4.1732512192628157e-01  3.9009363396647134e-01  9.5947592048525088e-01  3.7364112407890149e-01  9.9999869844598854e-01  1.1250313984320758e-01  1.7191520308591726e-01  7.9106006290757291e-01  9.7562468761741045e-02  8.9361134348226556e-01  9.3751270557428790e-01  5.8056984018999824e-01  4.5469909031644395e-01  1.2793516770044050e-01  6.3281718254641983e-01  6.3433873191791024e-01  6.6951524822987107e-01  7.5058447208027712e-01  6.6693216087995333e-01  9.9999990362879532e-01  3.5939293811932510e-01  3.7996599873945319e-01  6.0671653420720495e-01  9.8827212231126227e-01  9.9450423354352391e-01  6.4343204319272862e-01  3.7723777586444912e-01  -9.2227091883368848e-07  2.9637362803938633e-01  6.2647076398907031e-01  3.2593757660975414e-01  2.9225956776483730e-01  3.3060957099468330e-01  5.3296601865261650e-01  4.0380607155550202e-01  2.6506323236094409e-01  2.3368959137048639e-01  2.7682999132722597e-01  6.7686431586666373e-01  1.4747643813994846e-01  9.0849257729298882e-01  2.9332317226411614e-01  8.9825833188918303e-01  8.7450941059099041e-01  8.4500947548085104e-01  1.0000891933554170e+00  1.0026108446008999e+00  2.87526434243791