<?xml version="1.0"?>
<VTKFile type="UnstructuredGrid"  version="0.1"  >
<UnstructuredGrid>
<Piece  NumberOfPoints="1079" NumberOfCells="1944">
<Points>
<DataArray  type="Float64"  NumberOfComponents="3"  format="ascii">0.08500000000000001 0.02 0  0.005 0.02 0  0.005 0.03 0  0 0.03 0  0 0 0  0.005 0 0  0.005 0.01 0  0.08500000000000001 0.01 0  0 0.015 0  0 0.0075 0  0 0.0225 0  0.04500000000000001 0.02 0  0.04500000000000001 0.01 0  0.025 0.01 0  0.025 0.02 0  0.065 0.02 0  0.065 0.01 0  0.035 0.02 0  0.035 0.01 0  0.07500000000000001 0.02 0  0.07500000000000001 0.01 0  0.015 0.02 0  0.015 0.01 0  0.05500000000000001 0.01 0  0.05500000000000001 0.02 0  0.07000000000000001 0.01 0  0.07000000000000001 0.02 0  0.05 0.01 0  0.03 0.01 0  0.03 0.02 0  0.04000000000000001 0.01 0  0.01 0.01 0  0.02 0.02 0  0.06 0.015 0  0.08500000000000001 0.015 0  0.05 0.02 0  0.07250000000000001 0.015 0  0.04000000000000001 0.02 0  0.03750000000000001 0.015 0  0.0525 0.015 0  0.02 0.01 0  0.01 0.02 0  0.0275 0.015 0  0.0125 0.015 0  0.08000000000000002 0.01 0  0.08000000000000002 0.02 0  0.0325 0.014375 0  0.04291666666666667 0.015 0  0.065 0.015 0  0.005 0.005 0  0.005 0.015 0  0.02208333333333334 0.015 0  0.07791666666666668 0.015 0  0.005 0.025 0  0.06 0.01 0  0.06 0.02 0  0.01729166666666667 0.01572916666666667 0  0.04770833333333334 0.01427083333333334 0  0.06875000000000001 0.01625 0  0.008750000000000001 0.01625 0  0.05625000000000001 0.01625 0  0 0.00375 0  0 0.01875 0  0 0.01125 0  0 0.02625 0  0.08145833333333334 0.01354166666666667 0  0.0675 0.01 0  0.0075 0.0125 0  0.0625 0.0175 0  0.0575 0.0125 0  0.0625 0.0125 0  0.08207465277777778 0.01707465277777778 0  0.06767857142857144 0.01321428571428571 0  0.0175 0.01 0  0.01875 0.01291382575757576 0  0.0475 0.02 0  0.04564168086314595 0.01679860519591141 0  0.00296875 0.0125 0  0.0025 0.03 0  0.0025 0 0  0.00296875 0.0175 0  0.01521990740740741 0.0132349537037037 0  0.0497800925925926 0.0167650462962963 0  0.0325 0.02 0  0.03474264705882353 0.01674632352941176 0  0.03750000000000001 0.02 0  0.03025735294117647 0.01674632352941176 0  0.0275 0.02 0  0.0525 0.02 0  0.0125 0.01 0  0.04020833333333334 0.01322916666666667 0  0.03750000000000001 0.01 0  0.0225 0.02 0  0.02479166666666667 0.01677083333333333 0  0.07520833333333335 0.01322916666666667 0  0.07250000000000001 0.01 0  0.07520833333333335 0.01677083333333334 0  0.07250000000000001 0.02 0  0.04020833333333334 0.01677083333333333 0  0.0225 0.01 0  0.02375 0.01262152777777778 0  0.04250000000000001 0.02 0  0.04250000000000001 0.01 0  0.07750000000000001 0.01 0  0.07750000000000001 0.02 0  0.05036151960784314 0.01294424019607843 0  0.0705560064935065 0.01284699675324675 0  0.05458333333333334 0.01291666666666666 0  0.0021875 0.024375 0  0.005 0.0275 0  0.01125 0.0175 0  0.01463848039215686 0.01705575980392157 0  0.01 0.01375 0  0.03625 0.0125 0  0.0021875 0.009375 0  0.05375000000000001 0.0175 0  0.07125000000000001 0.0175 0  0.005 0.0025 0  0.0021875 0.005625 0  0.02655220103578155 0.01234889948210923 0  0.002187499999999999 0.020625 0  0.02979166666666667 0.01302083333333333 0  0.0525 0.01 0  0.07895833333333334 0.0125 0  0.01994277885235332 0.01704213007736944 0  0.07934656179076068 0.01733823814273861 0  0.04505722114764669 0.01295786992263056 0  0.06625 0.0175 0  0.006250000000000001 0.0175 0  0.05750000000000001 0.02 0  0.05875000000000001 0.0175 0  0.005 0.0225 0  0.005 0.0075 0  0.002375 0.027375 0  0.002375 0.002625000000000001 0  0.0475 0.01 0  0.0175 0.02 0  0.0325 0.01 0  0.03375 0.0121875 0  0.04261299435028249 0.01749205508474576 0  0.08500000000000001 0.0125 0  0.08250000000000002 0.01 0  0.02121963399965531 0.01224824108143494 0  0.0675 0.02 0  0.0125 0.02 0  0.02720152243589744 0.0175 0  0.03715165441176471 0.0175 0  0.08500000000000001 0.0175 0  0.0275 0.01 0  0.0025 0.0149560546875 0  0.0075 0.01 0  0.0075 0.02 0  0.06526785714285716 0.0125 0  0.01281031447005516 0.0125 0  0.0625 0.015 0  0.06 0.0125 0  0.05750000000000001 0.01 0  0.0625 0.02 0  0.0625 0.01 0  0.08250000000000002 0.02 0  0.04260103740101855 0.01252623201412851 0  0.02240052247582197 0.01750164767101344 0  0.07293583459427785 0.01238479732953041 0  0.005234374999999999 0.012265625 0  0.03528131980640358 0.01454684009679821 0  0.0325 0.01760027210036557 0  0.02532593822924343 0.01428227733767297 0  0.08009952069819683 0.01527145502895417 0  0.01987282359856536 0.01482587683689801 0  0.04828232595121382 0.01210233572595705 0  0.01671767404878618 0.01789766427404295 0  0.05125 0.01829007549029352 0  0.05247215456215357 0.01288882122882024 0  0.07338729919678716 0.01799385040160642 0  0.03838729919678716 0.01200614959839357 0  0.07717482110586968 0.01780301674207099 0  0.04771860040890012 0.01773306039388322 0  0.03125 0.01160380747126437 0  0.06875000000000001 0.01154265873015873 0  0.07625000000000001 0.01154065860215054 0  0.01625 0.01153997817696946 0  0.068125 0.018125 0  0.05437500000000001 0.015625 0  0.066875 0.015625 0  0.07039794950204951 0.01494384850614853 0  0.05687500000000001 0.018125 0  0.006875 0.015625 0  0.008749999999999999 0.01833333333333333 0  0.010625 0.015625 0  0.05625 0.01416666666666667 0  0.05812500000000001 0.015625 0  0.0449088595298192 0.01494528408816316 0  0 0.016875 0  0 0.013125 0  0.04962452342047931 0.01478673066448802 0  0.0153754765795207 0.01521326933551198 0  0.0771774565913315 0.01322498191305479 0  0.01857756431135545 0.01840228599899994 0  0.04642243568864456 0.01159771400100006 0  0.08125000000000002 0.01155637254901961 0  0.08317650804863432 0.0118234919513657 0  0.08288217288011697 0.01511353252923977 0  0.02837253504384828 0.0117177464035174 0  0.03896057962520807 0.01831163685754031 0  0.01125 0.0114244162490927 0  0.00935910490099115 0.0119067901980177 0  0.02946078431372549 0.01495404411764706 0  0.02875 0.0185829434466942 0  0.002968749999999999 0.0225 0  0.064375 0.016875 0  0.00296875 0.0075 0  0 0.001875 0  0 0.005625 0  0 0.009375 0  0 0.020625 0  0 0.024375 0  0 0.028125 0  0.06062500000000001 0.01812500000000001 0  0.008303571428571429 0.01446428571428572 0  0.01375 0.01865917058160413 0  0.05137790313978056 0.01143372888932909 0  0.04125000000000001 0.01131513063942604 0  0.04101690263896279 0.01844430285842771 0  0.02399563533148224 0.01844349395710867 0  0.08125000000000002 0.01868815426145731 0  0.05354684380692146 0.01145463537600848 0  0.01699195823639423 0.01315138909884649 0  0.07598357371794873 0.015 0  0.04098357371794872 0.015 0  0.003744047619047619 0.00375 0  0.003344630281690141 0.02580853873239437 0  0.04625 0.0187354532243972 0  0.06388392857142858 0.01138392857142858 0  0.06375 0.01375 0  0.05875 0.01375 0  0.06375 0.02 0  0.00622802734375 0.01372802734375 0  0.003630681818181818 0.001369318181818182 0  0.003630681818181818 0.02863068181818182 0  0.06125 0.01625 0  0.06125 0.01125 0  0.05625000000000001 0.01 0  0.05875 0.01125 0  0.06125 0.01375 0  0.08337864763241221 0.0183786476324122 0  0.05213634138653413 0.01674432930673294 0  0.04375000000000001 0.01 0  0.07424178685897437 0.01529258578431373 0  0.03924178685897436 0.01529258578431372 0  0.03410139294454583 0.01843406022904556 0  0.03089860705545417 0.01843406022904556 0  0.02094160484316717 0.01850229584291991 0  0.04375000000000001 0.02 0  0.04437042160883325 0.01820701498672512 0  0.04816311705429156 0.01600061344661149 0  0.07151224904251052 0.0114127410511319 0  0.04395528506193162 0.01639387970349481 0  0.0128750358694518 0.0167500179347259 0  0.02855808448399799 0.01642839899839741 0  0.02812690373330794 0.01340955081400569 0  0.08358500641945087 0.01351822349116885 0  0.05590277777777778 0.01173611111111111 0  0.06683110430364615 0.01164926404662283 0  0.02573206694914602 0.01842532451809762 0  0.01438126661842046 0.01166701193099454 0  0.02384283211216029 0.01526549696571563 0  0.03625 0.02 0  0.004609375000000001 0.0182421875 0  0.003398437500000001 0.01943359375 0  0.001728307845744682 0.01894718251329787 0  0.004377805359085963 0.01656966216675735 0  0.04649673309852075 0.0153889662370871 0  0.03615513600614297 0.01592654988586041 0  0.03316985071935832 0.01598763605018279 0  0.03110111603888768 0.01529816275177977 0  0.01370614113484869 0.0138804542047638 0  0.04930041102671841 0.01842260568883502 0  0.07875000000000001 0.02 0  0.0745395359848485 0.01165101111925709 0  0.03860755698543604 0.01373741558556884 0  0.02605038706571737 0.01573944002207753 0  0.07559826163500957 0.01841729376139847 0  0.04437500000000001 0.01149157931286774 0  0.06874116707361365 0.01454618473032123 0  0.003761917372881356 0.0239307468220339 0  0.003984374999999999 0.01125 0  0.003768503289473684 0.01392539576480263 0  0.001796875 0.0111328125 0  0.003761917372881356 0.008930746822033899 0  0.005 0.00625 0  0.003761917372881355 0.0210692531779661 0  0.06633928571428571 0.01410714285714285 0  0.006484375 0.01125 0  0.08364120589325512 0.01657288979763549 0  0.03576267476503373 0.0184116442851204 0  0.07370875846579374 0.0137848203678562 0  0.06964285714285715 0.01758928571428571 0  0.05520833333333334 0.01833333333333333 0  0.06491071428571429 0.01839285714285714 0  0.0510098951944636 0.01559941474766356 0  0.01786087179886325 0.0115702210443714 0  0.01972197383235524 0.01160576093166696 0  0.01804697593127788 0.01433503795474974 0  0.001644074528704677 0.01642892723865279 0  0.00125 0.03 0  0.001497685185185185 0.001267746913580247 0  0.07315451164202422 0.01643443118912983 0  0.001233906745910645 0.0140625 0  0.01162635071030191 0.01362229857939618 0  0.01528023503083844 0.01845923557506155 0  0.06625 0.02 0  0.07695012019230771 0.01624387078484555 0  0.03139091092855769 0.01320776147621796 0  0.03857339107781042 0.01675295051810485 0  0.001754993120977522 0.02590789105493891 0  0.002288757784711197 0.00412546923654445 0  0.07914382119690884 0.01404430049871201 0  0.001391810103286306 0.01257390899021902 0  0.0419501201923077 0.01614675005432421 0  0.001484375 0.007018229166666667 0  0.001484375 0.02201822916666666 0  0.048
[...]
<PointData  Scalars="concentration"> 
<DataArray  type="Float64"  Name="concentration"  format="ascii">5.3652230095918063e-01  9.3906381729979305e-01  9.9999999999999889e-01  9.9999999999999944e-01  -2.4815418376590824e-20  -1.8877565846645849e-21  9.5172771673921033e-02  5.3649597434427299e-01  5.4314334290459976e-01  1.6793903065362870e-02  9.9184867577816882e-01  5.3867230028174651e-01  5.3435284773430858e-01  5.0652303592467718e-01  5.6636689474169055e-01  5.3666573774205129e-01  5.3635212607555471e-01  5.4454451315985530e-01  5.2841247464606000e-01  5.3655118528162093e-01  5.3646723042472699e-01  6.4697754369293126e-01  4.2526327214513143e-01  5.3592621784540362e-01  5.3709042470946078e-01  5.3642806113542596e-01  5.3659037486319161e-01  5.3538314121173336e-01  5.2089340269093420e-01  5.5199560945304882e-01  5.3233292084740813e-01  3.2104145661091527e-01  5.9391038088047710e-01  5.3650868981058786e-01  5.3650912515684746e-01  5.3762877838985379e-01  5.3650904174443337e-01  5.4067010753987299e-01  5.3651198792006882e-01  5.3650891845217641e-01  4.7898143776983909e-01  7.4795820886839903e-01  5.3658476796433119e-01  5.3715939486062270e-01  5.3648738452891565e-01  5.3653097977824304e-01  5.3422036363356995e-01  5.3651029698784247e-01  5.3650930080954307e-01  2.0641557052585280e-03  5.4284101852913780e-01  5.3648455145713791e-01  5.3650911312769267e-01  9.9929240204329051e-01  5.3620741818699580e-01  5.3681078802402427e-01  5.5628323389750223e-01  5.3615198756077642e-01  5.3654716320508067e-01  6.3883845142639895e-01  5.3670656593891475e-01  1.5833545330875257e-03  9.0375527826268487e-01  1.4175392792004846e-01  9.9950253660730859e-01  5.3650085985966567e-01  5.3639710027078391e-01  3.2149660266757141e-01  5.3666964078900736e-01  5.3620191493516389e-01  5.3634999887537083e-01  5.3651960420712197e-01  5.3644856667320340e-01  4.5651962640274546e-01  4.9363777022817579e-01  5.3807230264901695e-01  5.3762306682098604e-01  2.4070814856748923e-01  9.9999999999999867e-01  5.6366212521644246e-21  8.2570952062989433e-01  4.7749781681975767e-01  5.3714569972988480e-01  5.4767223783130714e-01  5.4101969680105177e-01  5.4230963847993907e-01  5.4463391598469224e-01  5.5814853615165694e-01  5.3731737173284277e-01  3.8141203984805694e-01  5.3426664040097960e-01  5.3072060185705494e-01  5.7816965653734864e-01  5.5338035534601160e-01  5.3648666189633731e-01  5.3645093448535863e-01  5.3653152849767860e-01  5.3656755096560460e-01  5.3874974786143581e-01  4.9511930915890928e-01  5.1161342381488095e-01  5.3950988694652724e-01  5.3350221175982937e-01  5.3647868146489319e-01  5.3653944877974735e-01  5.3583897332852803e-01  5.3646016048899392e-01  5.3611915236900887e-01  9.9873143537250142e-01  9.9999133059998779e-01  6.6916155117910914e-01  6.0925183086361734e-01  4.5176048076289893e-01  5.3147390004650863e-01  4.4932267788693636e-02  5.3701119134512654e-01  5.3655973497568243e-01  1.2573005793117806e-04  3.4880473581566053e-03  5.1769008426135599e-01  9.7569286860673676e-01  5.2680394519571772e-01  5.3570289335072740e-01  5.3649078314618248e-01  5.7250157142055913e-01  5.3652573687670657e-01  5.3518013881752724e-01  5.3660604310049287e-01  7.8205743234431768e-01  5.3692942000341159e-01  5.3677159864168411e-01  9.9344702364162440e-01  1.3886688628618055e-02  1.0000339118094668e+00  1.7467908413393394e-05  5.3495542413125863e-01  6.1643580203132708e-01  5.2535707055266889e-01  5.2892995620468919e-01  5.3869304072703761e-01  5.3649962860533895e-01  5.3649323334750165e-01  4.9784757015929876e-01  5.3662176541077800e-01  6.8930362798219724e-01  5.5297208065949244e-01  5.4093773165144243e-01  5.3651861764463238e-01  5.1497952508896505e-01  5.3844117017286264e-01  2.3428748985491221e-01  8.2777891130082271e-01  5.3639820978133357e-01  4.2751630127751700e-01  5.3650954907539927e-01  5.3628876999929476e-01  5.3608756714586581e-01  5.3672748806074677e-01  5.3629125037238201e-01  5.3652502232884569e-01  5.3434427251938676e-01  5.6747595996382938e-01  5.3646713657022427e-01  2.4147614541100665e-01  5.3531612312623811e-01  5.4496753762982575e-01  5.2966038350516909e-01  5.3651111312899058e-01  5.3328400918360697e-01  5.3535734627336107e-01  6.0897037275643617e-01  5.3734670337626289e-01  5.3599082577860602e-01  5.3655249683097372e-01  5.3221979617483905e-01  5.3653445949088696e-01  5.3770087798080579e-01  5.2476278289936673e-01  5.3642287620790652e-01  5.3647682014018838e-01  4.5143790271304990e-01  5.3659817278893329e-01  5.3663927465182859e-01  5.3653391701600017e-01  5.3650770545412940e-01  5.3689835131613661e-01  6.0360101424845092e-01  7.5635568069909287e-01  5.7824977430814084e-01  5.3637556083199167e-01  5.3658898603634964e-01  5.3647266391418102e-01  7.6036430695925861e-01  3.1356512953761978e-01  5.3642758193055229e-01  5.4419051044531830e-01  5.3649171489169767e-01  5.9875323517677892e-01  5.3489906712999002e-01  5.3649240603605475e-01  5.3649653581810552e-01  5.3650967538689487e-01  5.1965255097417196e-01  5.4073490354984910e-01  3.6721941836250316e-01  3.3687667168841579e-01  5.3621595206249306e-01  5.5334611488604690e-01  9.9423365675617881e-01  5.3660730010822033e-01  1.2801213482143669e-02  5.5196243194896501e-04  5.1236022790919723e-03  5.1447555959326298e-02  9.6998455971836917e-01  9.9793533519398026e-01  9.9982589664399135e-01  5.3674755707984989e-01  4.9239168952477358e-01  6.5827792871312607e-01  5.3564444986662496e-01  5.3319103640663323e-01  5.3983653629848416e-01  5.6722949072033524e-01  5.3652644180742226e-01  5.3586273781188476e-01  4.8761096983960250e-01  5.3650914767000801e-01  5.3651536412521483e-01  5.0113125910741720e-04  9.9980674315667362e-01  5.3823974024043364e-01  5.3634184541126140e-01  5.3643586057506742e-01  5.3636688216213924e-01  5.3669345214354547e-01  4.0476962984841081e-01  -1.3103381764842390e-05  1.0000150040933009e+00  5.3661149682272069e-01  5.3626744405220228e-01  5.3601601525967946e-01  5.3617359980102297e-01  5.3640710819224080e-01  5.3652197886698405e-01  5.3696811014790247e-01  5.3395633124261077e-01  5.3651364603492213e-01  5.3694444084916748e-01  5.4469868927180831e-01  5.4893713069249261e-01  5.8286852216771534e-01  5.3905528461047192e-01  5.3854556488254979e-01  5.3696861476936419e-01  5.3644779430628242e-01  5.3761666891789295e-01  6.1681992683901266e-01  5.4503371635588982e-01  5.2665006000448622e-01  5.3650265341789749e-01  5.3605512781421583e-01  5.3639989310284197e-01  5.6085136871122032e-01  4.2988681534931278e-01  5.3949010625508986e-01  5.4336067592785642e-01  8.6912561749913630e-01  9.4267559505532339e-01  9.2093365116336290e-01  7.2597321198798725e-01  5.3674261381588051e-01  5.3859633145688546e-01  5.3977205737240264e-01  5.3785467889966143e-01  4.8915959155767197e-01  5.3761160804741059e-01  5.3653490380058266e-01  5.3646940442533098e-01  5.3449846967658643e-01  5.4283511456111710e-01  5.3654407348683486e-01  5.3436894886440478e-01  5.3649500436248365e-01  9.9822997319584639e-01  1.3754999792803227e-01  4.0665394627899204e-01  1.2579093462098068e-01  3.4850557913089671e-02  5.6641579641904310e-03  9.8181893479010951e-01  5.3647147587598920e-01  2.1373635928662130e-01  5.3651594560098803e-01  5.4307803030848112e-01  5.3648977077613569e-01  5.3657320296137534e-01  5.3701386934809292e-01  5.3665064473531754e-01  5.3670368754477582e-01  4.6786360804813570e-01  4.8281398182171398e-01  5.2067916612557219e-01  7.1833739249555895e-01  9.9999999999999956e-01  -5.4645251965870744e-05  5.3653354382616403e-01  4.2215124788831265e-01  4.6178322895323143e-01  6.3353753428464255e-01  5.3664194075523775e-01  5.3652222159504004e-01  5.2927321070097921e-01  5.3926457034003794e-01  9.9966965365263238e-01  9.5219353563699759e-04  5.3650163142552598e-01  2.4868006863266426e-01  5.3771018453900743e-01  9.9867523488970707e-03  9.9093181649896511e-01  5.3587986407353350e-01  5.3545593096640820e-01  5.8424482724123894e-01  5.3619713715376260e-01  5.3551346462133509e-01  5.7731931215812970e-01  5.3558954640081691e-01  5.5154906977509310e-01  5.3531362002592831e-01  5.3626328516782462e-01  5.3281577544782710e-01  5.6255437634335836e-01  5.1728044571104437e-01  5.1249912481311022e-01  5.1006327601777712e-01  5.0106968613005787e-01  5.1095061657592511e-01  4.9972187040714194e-01  5.3645242698531947e-01  5.3648700758264811e-01  5.3648247774617619e-01  9.9669120519072574e-01  3.1514128997146263e-03  2.7166958939392860e-02  5.2190872822713397e-01  1.0000353005892677e+00  5.2726202394221477e-01  5.3178272391013248e-01  5.3658027331713953e-01  5.3657418547002511e-01  5.3684675262526882e-01  5.3662472047366949e-01  5.3656630939659267e-01  6.8709883151273365e-01  5.2927501784089304e-01  5.2970320695209028e-01  5.3086897153770074e-01  7.3048035021927504e-01  8.7899516699207625e-01  5.3665349234622117e-01  5.3656681700920927e-01  5.3687441426433125e-01  5.3723032132292914e-01  5.3416780906569861e-01  7.1576414486258266e-01  5.3669811144550328e-01  7.2548917922897227e-01  6.8121028847557374e-01  8.1770414419883186e-01  5.3653157968556153e-01  5.3675077776226854e-01  5.3651322497719889e-01  5.3575191550728007e-01  3.9274809990544757e-01  5.3643578903274269e-01  5.3637205657091103e-01  5.3652314327939499e-01  5.3653152641115132e-01  5.3651738019494755e-01  2.3489648222437846e-03  5.3719724637183164e-01  5.3649464015731163e-01  5.3648346515365264e-01  5.3648843592170681e-01  6.3060902455753665e-01  5.3519001704211022e-01  8.4743512198659832e-01  5.4190493003802231e-01  5.3654116109534133e-01  6.8222768603464035e-01  2.8117692849914355e-01  2.7481626589694363e-01  5.5479438542213755e-01  4.6860329935205353e-01  5.1874309871322222e-01  5.3700326269221543e-01  5.3654701900454804e-01  5.3660465501259824e-01  5.3676489473057454e-01  5.2417517698061866e-01  5.3736097416173245e-01  3.9166782526763261e-01  5.3290295464768545e-01  9.9986493451702452e-01  7.7037879308693115e-04  1.0000075518375560e+00  5.3645976378199656e-01  5.1053147917844066e-01  5.3245672259853349e-01  8.4118818379524854e-02  5.4875292580893276e-01  5.3913643707369496e-01  4.8741581930031430e-01  6.8921117798890374e-01  5.3649684702307932e-01  5.3649522535841976e-01  5.3672959984727420e-01  5.3681305738568996e-01  5.3655864046936652e-01  5.3158653918125498e-01  5.3659462980361783e-01  5.3001773425338927e-01  5.2635616279604025e-01  5.2705477162793224e-01  4.9975741326148332e-01  5.4859878973864495e-01  5.3634365251738614e-01  5.1526148004401817e-01  5.3385350759852490e-01  5.4238635306810690e-01  5.3886752630703538e-01  5.5429583742562760e-01  5.3645960155001349e-01  4.0050323400494148e-01  5.4524038574940459e-01  5.5245273710592691e-01  5.5682824942344056e-01  5.4116336074223237e-01  5.9492494942570351e-01  5.3636442935568585e-01  5.3644780863386876e-01  5.3642599188245366e-01  7.2398365833719058e-02  5.3681430743563330e-01  3.7584783717615955e-01  5.7010749035023889e-01  5.7442898850387636e-01  5.3657789183998783e-01  5.3654465484148228e-01  5.3783165609478278e-01  5.6193106757547118e-01  5.3643996569702668e-01  5.4597528586700683e-01  5.3659606710234076e-01  5.3637671729431102e-01  5.3632489812488049e-01  5.3582255652209676e-01  5.3652769498184549e-01  5.7168709994696920e-01  5.3554987472943627e-01  5.3295004090866105e-01  5.4142038264568160e-01  5.3649059158736245e-01  5.3647339709729558e-01  5.3641371496816592e-01  5.3746116148917444e-01  5.4007708265932275e-01  9.9772964245539375e-01  5.3651425377818418e-01  5.3611284211748589e-01  5.3630398225656395e-01  6.6724442134998774e-01  3.5248914022078393e-01  7.8367709047967637e-01  4.4194140213984051e-01  3.2276847234581407e-02  4.0489156314248798e-01  1.8912564271506491e-21  5.7743354918396482e-04  2.7782083655981969e-05  1.0000000000000009e+00  -2.9819037936244847e-20  1.7242767341442850e-01  8.6609078912341808e-01  9.8210447766124598e-01  5.3650397486290713e-01  5.8546890679051899e-01  5.3642208834011051e-01  9.9987031262905357e-01  5.5475289918431070e-01  5.1828595901041763e-01  6.0425152925108339e-01  5.2336158699594071e-01  9.9999043913467822e-01  5.3652143885803372e-01  5.4972194764921400e-01  5.3714073049457867e-01  5.3650875540193388e-01  5.3638821678293214e-01  5.3624928402576710e-01  5.3622569343575255e-01  5.3615154522396358e-01  5.3632134739047266e-01  5.3625190184960736e-01  5.3835166814246771e-01  5.3467407185313787e-01  5.3686607672566145e-01  5.3652309427853995e-01  5.3401834082353694e-01  5.3652611267076100e-01  5.3788535657124714e-01  5.3886043826895036e-01  5.3603751720718495e-01  3.6585429203127773e-01  5.0363599315184571e-01  5.3618682162331077e-01  5.3648846231300462e-01  5.3655273126790570e-01  5.3649902510025316e-01  5.3474176372847171e-01  5.3646630291210473e-01  5.3654691261196408e-01  9.4486966185456400e-01  5.8067577262698489e-01  5.4769538087708458e-01  5.4312335219463648e-01  5.3653587058507402e-01  7.8286242095974706e-03  5.3654134763554062e-01  2.1728974671051014e-05  9.5930916640699837e-01  5.4887985392608618e-01  5.3653921845892150e-01  5.3647907998830180e-01  5.3594077312957544e-01  5.3638289006877016e-01  5.3650125717097996e-01  5.8834980079347665e-01  5.3713887551121475e-01  5.5858706480549136e-01  9.9893736440469927e-01  4.5018198893141109e-01  5.3647625667537591e-01  5.3649870733610849e-01  5.3540769856902115e-01  1.5733729611214745e-01  2.8017101419839729e-01  2.3393222440517564e-01  5.3743557386622731e-01  5.3820524908873224e-01  5.3650422672532427e-01  5.4567677155073335e-01  5.4284813974820745e-01  5.3665600274731440e-01  5.3688294356281541e-01  4.9141955170150370e-01  5.3654407641126567e-01  6.1274342045984864e-01  5.3566335707056534e-01  5.3511954945096862e-01  5.8422916175275064e-01  5.3648356368294170e-01  5.0592972804338110e-01  5.3786272825680037e-01  5.4171103922312391e-01  4.0888676026187160e-01  5.3651893191187594e-01  5.3653205296430695e-01  5.3650686464985797e-01  5.5456196256245549e-01  5.1264540660153368e-01  4.8851701207572362e-01  1.0000028286461466e+00  5.3652294819402679e-01  5.3655338189464841e-01  5.3334586175575927e-01  5.2446923382858590e-01  5.2776587713584244e-01  5.4520608839539178e-03  5.3149649038573799e-01  5.3579812562130213e-01  5.1245493732894409e-01  5.5072859070986346e-01  6.2595924117056512e-01  5.3652326721525734e-01  5.3958230967972842e-01  5.3650240033869612e-01  5.3453822373915083e-01  5.2438521813087324e-01  -5.4063559969279368e-05  5.3132919848232363e-01  5.3656116153519207e-01  5.2075476413899091e-01  5.3649516441202150e-01  5.3739771721114959e-01  4.0813234711345325e-01  7.6446525267686999e-02  5.3651485390242104e-01  5.3650742704787757e-01  5.3751872481893981e-01  5.3808047550793014e-01  5.3605350377240502e-01  5.3590957252898463e-01  5.3206671836479169e-01  5.3652051205920326e-01  5.3384899276189457e-01  6.3487527436986468e-01  6.0608956706702253e-03  1.7514897409897711e-02  9.9551138713579523e-01  4.8569428295978689e-01  5.3664948125051304e-01  7.7944561859197858e-01  7.5698676937331277e-01  7.9861216034872384e-01  7.0795191021507653e-01  5.3652952024469280e-01  5.3649647712133530e-01  5.3768751200505549e-01  5.3562940691808791e-01  5.3622749329528929e-01  5.2733578494950595e-01  5.3624682894092635e-01  5.3736658158691075e-01  5.3988768951038468e-01  5.4047379356897363e-01  2.0115755946492636e-04  6.1130550687822582e-01  9.9998180692534255e-01  5.3650914375950698e-01  5.3421509933525257e-01  5.5157442919117528e-01  5.3460374592850668e-01  5.3035137779121033e-01  5.9769884888740077e-01  9.7975955491766453e-01  1.4945863723105490e-01  5.4653513878220883e-01  1.3707316880995103e-03  5.2493326182662903e-01  5.2253038474093261e-01  9.9208262397493163e-01  9.8716368999483295e-01  1.6735653934892181e-02  5.3817523415656110e-01  5.3853647363625146e-01  5.9587518286121854e-01  5.3384545412559825e-01  5.3744787121077198e-01  9.9740774977961122e-01  2.5356359194978282e-02  5.2980169334742588e-01  3.0793742952156511e-01  8.6074203554027917e-01  9.0131365619708992e-01  5.3648457014236484e-01  5.3617024169363015e-01  5.4446271440260108e-01  5.3649630272647564e-01  5.3648941798115479e-01  5.3649234750117403e-01  5.3640073757769258e-01  5.3576653123681950e-01  5.3701299372705358e-01  5.3548580620525377e-01  5.3643293811318615e-01  5.3640759410991568e-01  6.5835222963190154e-01  5.3678382488624010e-01  5.7567218744971005e-01  5.4173351796138736e-01  5.3625641269405644e-01  5.3647694118392131e-01  5.3647031682901059e-01  5.3647753379598329e-01  5.3648390445820704e-01  4.5105483765255833e-01  4.5077497407773148e-01  4.3567074690570262e-01  5.4062372152454985e-01  5.3667935940140332e-01  5.3668574225077548e-01  5.3661433373579626e-01  6.1477697595982828e-01  5.3661035683576852e-01  5.3655867701266169e-01  5.3695380068388410e-01  5.3660292259606779e-01  5.3657482230371645e-01  5.3658957582044797e-01  7.0077839666444675e-01  6.3958440562691210e-01  5.3645686517496216e-01  5.8413731048417372e-01  5.3657116340220501e-01  5.3652339028481377e-01  5.3660871729577986e-01  5.3682958435839667e-01  5.3667320692386378e-01  5.3675046082615330e-01  5.3669963327580428e-01  5.3652324623670045e-01  5.3678969418993761e-01  5.3650948954693956e-01  5.3651191010314070e-01  5.3525647271411314e-01  5.3703589995057388e-01  5.3651873206465617e-01  1.0506497814838375e-04  5.3882485182016004e-01  5.4004934840588914e-01  3.3707454500503453e-01  5.3260547990221929e-01  5.8089685125304846e-01  5.8439894826156125e-01  5.4293197756698053e-01  3.2720109491384752e-01  3.9362889492680631e-01  5.3653095413629759e-01  5.3642258780112795e-01  5.6083391520349835e-01  5.6027773166755246e-01  5.2462767765634410e-01  5.3649486503978328e-01  5.3649465429681586e-01  5.3649779455120628e-01  5.3475511355826544e-01  6.9822734331573277e-01  5.3634805681407571e-01  5.3539829109415171e-01  5.3773890706380767e-01  5.3652158909610559e-01  5.3370484939514562e-01  5.3561343724976340e-01  5.3262881098900872e-01  5.3492209192716678e-01  5.3649602474980262e-01  5.2289056566563274e-01  5.1706802173877553e-01  5.1923046351581126e-01  9.9938070948970803e-01  1.6829804004061477e-01  5.3598270368848366e-01  5.3604915890220228e-01  5.3648787521047614e-01  4.6791418889920416e-01  5.3935588337804785e-01  5.2138445858121030e-01  5.3652772251902114e-01  8.9025698141229146e-04  4.8419267629916063e-01  5.3042867821195427e-01  5.3674706611047807e-01  9.3336914871796038e-03  5.3866305962090599e-01  5.3890208358569347e-01  5.3800457722325445e-01  3.8876599902551506e-01  3.7146447351934558e-01  9.9618150184953214e-01  5.2918998985372467e-01  6.5219670518196715e-01  5.5306296325519977e-01  5.3800505115463193e-01  5.3651247760708842e-01  5.3708565700717170e-01  5.3651821321097748e-01  4.7178693744991396e-01  9.8431928497192600e-01  9.9583911588825391e-01  8.7650475565848138e-02  5.3649048524951470e-01  2.8334953293000517e-03  3.0274598369840866e-02  2.1740729443908172e-01  4.2522079596185330e-01  9.9975638333611516e-01  8.4444050791753711e-01  9.9898764002832252e-01  5.2466195735021293e-01  5.3643865998348172e-01  6.3645502364900741e-01  5.3645224634310062e-01  9.9939810030653076e-01  4.6594917115602380e-01  4.8133918985185686e-01  5.3925573486043521e-01  4.9868495972676241e-01  5.6772859873190096e-01  5.6847089203601742e-01  5.3652058909919942e-01  5.3649639855233267e-01  4.8095269457936823e-01  5.3651913933002471e-01  5.3651994595924546e-01  5.3652417726402779e-01  5.3951642198961303e-01  5.3831283570847421e-01  9.9998539257966412e-01  5.3273877592947860e-01  4.7885202990463838e-01  5.3738177723245883e-01  6.4996387087456686e-01  6.7568647837630458e-01  5.3654128665257006e-01  5.3646434719372071e-01  1.3234849561922790e-03  5.2332361928744031e-01  5.5022436503635808e-01  5.3509859462166964e-01  5.3568575487059122e-01  5.3570919419944851e-01  5.3650873129498755e-01  5.3624295997083005e-01  5.3371724572437562e-01  5.3329924905926451e-01  5.3526955357083150e-01  5.3652895637711573e-01  5.1939602468741863e-01  6.6269820753819575e-01  4.9983257958896443e-01  5.5057951705589681e-01  5.4510840117799630e-01  5.4534743885045667e-01  9.0976917664689128e-01  8.6907972504700015e-01  7.7128160821044567e-02  5.3723168216957751e