<?xml version="1.0"?>
<VTKFile type="UnstructuredGrid"  version="0.1"  >
<UnstructuredGrid>
<Piece  NumberOfPoints="1079" NumberOfCells="1944">
<Points>
<DataArray  type="Float64"  NumberOfComponents="3"  format="ascii">0.08500000000000001 0.02 0  0.005 0.02 0  0.005 0.03 0  0 0.03 0  0 0 0  0.005 0 0  0.005 0.01 0  0.08500000000000001 0.01 0  0 0.015 0  0 0.0075 0  0 0.0225 0  0.04500000000000001 0.02 0  0.04500000000000001 0.01 0  0.025 0.01 0  0.025 0.02 0  0.065 0.02 0  0.065 0.01 0  0.035 0.02 0  0.035 0.01 0  0.07500000000000001 0.02 0  0.07500000000000001 0.01 0  0.015 0.02 0  0.015 0.01 0  0.05500000000000001 0.01 0  0.05500000000000001 0.02 0  0.07000000000000001 0.01 0  0.07000000000000001 0.02 0  0.05 0.01 0  0.03 0.01 0  0.03 0.02 0  0.04000000000000001 0.01 0  0.01 0.01 0  0.02 0.02 0  0.06 0.015 0  0.08500000000000001 0.015 0  0.05 0.02 0  0.07250000000000001 0.015 0  0.04000000000000001 0.02 0  0.03750000000000001 0.015 0  0.0525 0.015 0  0.02 0.01 0  0.01 0.02 0  0.0275 0.015 0  0.0125 0.015 0  0.08000000000000002 0.01 0  0.08000000000000002 0.02 0  0.0325 0.014375 0  0.04291666666666667 0.015 0  0.065 0.015 0  0.005 0.005 0  0.005 0.015 0  0.02208333333333334 0.015 0  0.07791666666666668 0.015 0  0.005 0.025 0  0.06 0.01 0  0.06 0.02 0  0.01729166666666667 0.01572916666666667 0  0.04770833333333334 0.01427083333333334 0  0.06875000000000001 0.01625 0  0.008750000000000001 0.01625 0  0.05625000000000001 0.01625 0  0 0.00375 0  0 0.01875 0  0 0.01125 0  0 0.02625 0  0.08145833333333334 0.01354166666666667 0  0.0675 0.01 0  0.0075 0.0125 0  0.0625 0.0175 0  0.0575 0.0125 0  0.0625 0.0125 0  0.08207465277777778 0.01707465277777778 0  0.06767857142857144 0.01321428571428571 0  0.0175 0.01 0  0.01875 0.01291382575757576 0  0.0475 0.02 0  0.04564168086314595 0.01679860519591141 0  0.00296875 0.0125 0  0.0025 0.03 0  0.0025 0 0  0.00296875 0.0175 0  0.01521990740740741 0.0132349537037037 0  0.0497800925925926 0.0167650462962963 0  0.0325 0.02 0  0.03474264705882353 0.01674632352941176 0  0.03750000000000001 0.02 0  0.03025735294117647 0.01674632352941176 0  0.0275 0.02 0  0.0525 0.02 0  0.0125 0.01 0  0.04020833333333334 0.01322916666666667 0  0.03750000000000001 0.01 0  0.0225 0.02 0  0.02479166666666667 0.01677083333333333 0  0.07520833333333335 0.01322916666666667 0  0.07250000000000001 0.01 0  0.07520833333333335 0.01677083333333334 0  0.07250000000000001 0.02 0  0.04020833333333334 0.01677083333333333 0  0.0225 0.01 0  0.02375 0.01262152777777778 0  0.04250000000000001 0.02 0  0.04250000000000001 0.01 0  0.07750000000000001 0.01 0  0.07750000000000001 0.02 0  0.05036151960784314 0.01294424019607843 0  0.0705560064935065 0.01284699675324675 0  0.05458333333333334 0.01291666666666666 0  0.0021875 0.024375 0  0.005 0.0275 0  0.01125 0.0175 0  0.01463848039215686 0.01705575980392157 0  0.01 0.01375 0  0.03625 0.0125 0  0.0021875 0.009375 0  0.05375000000000001 0.0175 0  0.07125000000000001 0.0175 0  0.005 0.0025 0  0.0021875 0.005625 0  0.02655220103578155 0.01234889948210923 0  0.002187499999999999 0.020625 0  0.02979166666666667 0.01302083333333333 0  0.0525 0.01 0  0.07895833333333334 0.0125 0  0.01994277885235332 0.01704213007736944 0  0.07934656179076068 0.01733823814273861 0  0.04505722114764669 0.01295786992263056 0  0.06625 0.0175 0  0.006250000000000001 0.0175 0  0.05750000000000001 0.02 0  0.05875000000000001 0.0175 0  0.005 0.0225 0  0.005 0.0075 0  0.002375 0.027375 0  0.002375 0.002625000000000001 0  0.0475 0.01 0  0.0175 0.02 0  0.0325 0.01 0  0.03375 0.0121875 0  0.04261299435028249 0.01749205508474576 0  0.08500000000000001 0.0125 0  0.08250000000000002 0.01 0  0.02121963399965531 0.01224824108143494 0  0.0675 0.02 0  0.0125 0.02 0  0.02720152243589744 0.0175 0  0.03715165441176471 0.0175 0  0.08500000000000001 0.0175 0  0.0275 0.01 0  0.0025 0.0149560546875 0  0.0075 0.01 0  0.0075 0.02 0  0.06526785714285716 0.0125 0  0.01281031447005516 0.0125 0  0.0625 0.015 0  0.06 0.0125 0  0.05750000000000001 0.01 0  0.0625 0.02 0  0.0625 0.01 0  0.08250000000000002 0.02 0  0.04260103740101855 0.01252623201412851 0  0.02240052247582197 0.01750164767101344 0  0.07293583459427785 0.01238479732953041 0  0.005234374999999999 0.012265625 0  0.03528131980640358 0.01454684009679821 0  0.0325 0.01760027210036557 0  0.02532593822924343 0.01428227733767297 0  0.08009952069819683 0.01527145502895417 0  0.01987282359856536 0.01482587683689801 0  0.04828232595121382 0.01210233572595705 0  0.01671767404878618 0.01789766427404295 0  0.05125 0.01829007549029352 0  0.05247215456215357 0.01288882122882024 0  0.07338729919678716 0.01799385040160642 0  0.03838729919678716 0.01200614959839357 0  0.07717482110586968 0.01780301674207099 0  0.04771860040890012 0.01773306039388322 0  0.03125 0.01160380747126437 0  0.06875000000000001 0.01154265873015873 0  0.07625000000000001 0.01154065860215054 0  0.01625 0.01153997817696946 0  0.068125 0.018125 0  0.05437500000000001 0.015625 0  0.066875 0.015625 0  0.07039794950204951 0.01494384850614853 0  0.05687500000000001 0.018125 0  0.006875 0.015625 0  0.008749999999999999 0.01833333333333333 0  0.010625 0.015625 0  0.05625 0.01416666666666667 0  0.05812500000000001 0.015625 0  0.0449088595298192 0.01494528408816316 0  0 0.016875 0  0 0.013125 0  0.04962452342047931 0.01478673066448802 0  0.0153754765795207 0.01521326933551198 0  0.0771774565913315 0.01322498191305479 0  0.01857756431135545 0.01840228599899994 0  0.04642243568864456 0.01159771400100006 0  0.08125000000000002 0.01155637254901961 0  0.08317650804863432 0.0118234919513657 0  0.08288217288011697 0.01511353252923977 0  0.02837253504384828 0.0117177464035174 0  0.03896057962520807 0.01831163685754031 0  0.01125 0.0114244162490927 0  0.00935910490099115 0.0119067901980177 0  0.02946078431372549 0.01495404411764706 0  0.02875 0.0185829434466942 0  0.002968749999999999 0.0225 0  0.064375 0.016875 0  0.00296875 0.0075 0  0 0.001875 0  0 0.005625 0  0 0.009375 0  0 0.020625 0  0 0.024375 0  0 0.028125 0  0.06062500000000001 0.01812500000000001 0  0.008303571428571429 0.01446428571428572 0  0.01375 0.01865917058160413 0  0.05137790313978056 0.01143372888932909 0  0.04125000000000001 0.01131513063942604 0  0.04101690263896279 0.01844430285842771 0  0.02399563533148224 0.01844349395710867 0  0.08125000000000002 0.01868815426145731 0  0.05354684380692146 0.01145463537600848 0  0.01699195823639423 0.01315138909884649 0  0.07598357371794873 0.015 0  0.04098357371794872 0.015 0  0.003744047619047619 0.00375 0  0.003344630281690141 0.02580853873239437 0  0.04625 0.0187354532243972 0  0.06388392857142858 0.01138392857142858 0  0.06375 0.01375 0  0.05875 0.01375 0  0.06375 0.02 0  0.00622802734375 0.01372802734375 0  0.003630681818181818 0.001369318181818182 0  0.003630681818181818 0.02863068181818182 0  0.06125 0.01625 0  0.06125 0.01125 0  0.05625000000000001 0.01 0  0.05875 0.01125 0  0.06125 0.01375 0  0.08337864763241221 0.0183786476324122 0  0.05213634138653413 0.01674432930673294 0  0.04375000000000001 0.01 0  0.07424178685897437 0.01529258578431373 0  0.03924178685897436 0.01529258578431372 0  0.03410139294454583 0.01843406022904556 0  0.03089860705545417 0.01843406022904556 0  0.02094160484316717 0.01850229584291991 0  0.04375000000000001 0.02 0  0.04437042160883325 0.01820701498672512 0  0.04816311705429156 0.01600061344661149 0  0.07151224904251052 0.0114127410511319 0  0.04395528506193162 0.01639387970349481 0  0.0128750358694518 0.0167500179347259 0  0.02855808448399799 0.01642839899839741 0  0.02812690373330794 0.01340955081400569 0  0.08358500641945087 0.01351822349116885 0  0.05590277777777778 0.01173611111111111 0  0.06683110430364615 0.01164926404662283 0  0.02573206694914602 0.01842532451809762 0  0.01438126661842046 0.01166701193099454 0  0.02384283211216029 0.01526549696571563 0  0.03625 0.02 0  0.004609375000000001 0.0182421875 0  0.003398437500000001 0.01943359375 0  0.001728307845744682 0.01894718251329787 0  0.004377805359085963 0.01656966216675735 0  0.04649673309852075 0.0153889662370871 0  0.03615513600614297 0.01592654988586041 0  0.03316985071935832 0.01598763605018279 0  0.03110111603888768 0.01529816275177977 0  0.01370614113484869 0.0138804542047638 0  0.04930041102671841 0.01842260568883502 0  0.07875000000000001 0.02 0  0.0745395359848485 0.01165101111925709 0  0.03860755698543604 0.01373741558556884 0  0.02605038706571737 0.01573944002207753 0  0.07559826163500957 0.01841729376139847 0  0.04437500000000001 0.01149157931286774 0  0.06874116707361365 0.01454618473032123 0  0.003761917372881356 0.0239307468220339 0  0.003984374999999999 0.01125 0  0.003768503289473684 0.01392539576480263 0  0.001796875 0.0111328125 0  0.003761917372881356 0.008930746822033899 0  0.005 0.00625 0  0.003761917372881355 0.0210692531779661 0  0.06633928571428571 0.01410714285714285 0  0.006484375 0.01125 0  0.08364120589325512 0.01657288979763549 0  0.03576267476503373 0.0184116442851204 0  0.07370875846579374 0.0137848203678562 0  0.06964285714285715 0.01758928571428571 0  0.05520833333333334 0.01833333333333333 0  0.06491071428571429 0.01839285714285714 0  0.0510098951944636 0.01559941474766356 0  0.01786087179886325 0.0115702210443714 0  0.01972197383235524 0.01160576093166696 0  0.01804697593127788 0.01433503795474974 0  0.001644074528704677 0.01642892723865279 0  0.00125 0.03 0  0.001497685185185185 0.001267746913580247 0  0.07315451164202422 0.01643443118912983 0  0.001233906745910645 0.0140625 0  0.01162635071030191 0.01362229857939618 0  0.01528023503083844 0.01845923557506155 0  0.06625 0.02 0  0.07695012019230771 0.01624387078484555 0  0.03139091092855769 0.01320776147621796 0  0.03857339107781042 0.01675295051810485 0  0.001754993120977522 0.02590789105493891 0  0.002288757784711197 0.00412546923654445 0  0.07914382119690884 0.01404430049871201 0  0.001391810103286306 0.01257390899021902 0  0.0419501201923077 0.01614675005432421 0  0.001484375 0.007018229166666667 0  0.001484375 0.02201822916666666 0  0.048
[...]
<PointData  Scalars="concentration"> 
<DataArray  type="Float64"  Name="concentration"  format="ascii">7.4560031068583010e-01  1.0000716222605692e+00  9.9999999999999845e-01  9.9999999999999889e-01  6.4623485355705275e-23  4.4564814703446461e-23  -8.2014749442025378e-04  3.2420926803748135e-01  6.1922078836799765e-01  3.9126937971421788e-06  1.0000098852791897e+00  8.9455883437375516e-01  1.6136865653339885e-01  4.7305957235049372e-02  9.7765372625426183e-01  8.1420774573749732e-01  2.4815823706705856e-01  9.3685964235788710e-01  1.0172471678076439e-01  7.8017457838938831e-01  2.8831578369893018e-01  9.9984606943450927e-01  1.6661172447099495e-03  2.0949850662745009e-01  8.5222301375831488e-01  2.7093759158915348e-01  7.9963896030720483e-01  1.8759827378936494e-01  7.2075815967981460e-02  9.5912031748684989e-01  1.3567671632340891e-01  -4.6321316651454198e-04  9.9194876261589127e-01  5.4057753074107895e-01  5.3697074981496429e-01  8.7328271657907131e-01  5.3735106108871933e-01  9.1634178890783913e-01  5.4806796372254540e-01  5.4081231258142859e-01  2.4678376257138538e-02  9.9901051141889285e-01  5.5608375956470646e-01  5.8745271916525976e-01  3.0442321172953829e-01  7.6452631242656532e-01  4.5684360311134814e-01  5.4446817728398289e-01  5.3831778536355346e-01  -3.2380640387088598e-05  6.4036599248281334e-01  5.6539767786715245e-01  5.3713327214660711e-01  9.9999999439574805e-01  2.3279088948154308e-01  8.3332323686095489e-01  7.2269649630522426e-01  4.5615404565404621e-01  6.4457986040129645e-01  9.2538313862657562e-01  6.6819554927390734e-01  -2.3495820840107782e-07  1.0000268164111770e+00  2.9507359586206279e-04  1.0000000449138728e+00  4.3145788478304159e-01  2.6173198130111341e-01  1.5785053348964192e-03  7.5207139993607686e-01  3.0530047340896649e-01  3.2053633666099113e-01  6.7725358790627244e-01  3.8555278687911254e-01  1.0988653932660620e-02  1.8135234141239914e-01  8.8521623320963416e-01  7.4481946083690986e-01  5.8416946107055353e-03  9.9999999999999922e-01  3.0668698578838070e-23  1.0020742471528756e+00  1.9514415063123478e-01  7.2980396121987101e-01  9.4900365285598021e-01  7.7481637577687845e-01  9.2671991979324897e-01  7.9468812508296527e-01  9.7209046586914705e-01  8.6177017821589685e-01  -3.6342842579042251e-04  3.1932624183449615e-01  1.2084306986861257e-01  9.8717571867857845e-01  8.2279947243639973e-01  3.9974940482832366e-01  2.7719598357992437e-01  6.7237809177933849e-01  7.8873926585232401e-01  7.6024227182382520e-01  3.4692900082043926e-02  1.7437295455686350e-01  9.0769655234842972e-01  1.4499182859848586e-01  2.9206785899641224e-01  7.7418825016414927e-01  3.2126797353369346e-01  3.6415775605672213e-01  3.2976941424263134e-01  9.9999764321780238e-01  1.0000000728002996e+00  9.8557944004959663e-01  9.2944424311693907e-01  2.3066081124644738e-01  2.2457910211188736e-01  3.8080635968502664e-04  7.7724005159331222e-01  7.2802825765089119e-01  -1.0995112397858107e-06  7.9686953675982696e-07  1.6147781832437619e-01  1.0000071176932797e+00  2.5802686246780887e-01  1.9895639485079597e-01  3.6207294934470519e-01  8.8826061063569706e-01  6.9955964908470714e-01  3.0631070971608881e-01  7.4004768387004694e-01  9.9969617355375495e-01  8.4521524177197438e-01  7.6295558264168395e-01  1.0000121906041859e+00  -1.2155343265039046e-04  9.9999991742733230e-01  -5.9461837933506989e-07  1.7522902385608899e-01  9.9678583723878966e-01  9.1908773953906397e-02  1.8584125028699081e-01  8.1777858263508718e-01  3.8113597760270523e-01  3.1144656789913966e-01  1.1487837882439486e-01  8.0553495432206856e-01  1.0004453760116245e+00  8.8579681198720195e-01  8.3458899091650307e-01  6.9004217744828011e-01  6.2327218841739140e-02  6.1999364335580620e-01  1.1921911975869583e-03  1.0000613095177073e+00  3.2745502198812598e-01  6.8521394809854919e-02  5.3853910515810743e-01  3.1560464386964160e-01  2.2018461080235557e-01  8.2610497299383934e-01  2.4087896719209956e-01  7.5857021342695696e-01  2.5678965746220572e-01  9.1386419647285411e-01  3.4102998376484905e-01  -1.0575029799684768e-02  4.8322061812821909e-01  8.6589003292748179e-01  4.3255426237039757e-01  5.5798327465714415e-01  5.3463046587985441e-01  2.4213965330341622e-01  9.7160343812344185e-01  8.3168486644430273e-01  3.2205589047280236e-01  7.4714483654436736e-01  1.9631666952373361e-01  7.2907678514794017e-01  8.1516810866068257e-01  1.3201747337847294e-01  2.9044982041034267e-01  3.1432404859247842e-01  3.6155939959959423e-02  7.6748821102633913e-01  6.0842031098834393e-01  5.9551046843996913e-01  5.3303907580534859e-01  8.0304279967479542e-01  8.1831779058058651e-01  1.0007835538353951e+00  7.6478068016243628e-01  4.5252352075033142e-01  6.0411936168868863e-01  5.3740043255717329e-01  9.9064306630962384e-01  4.7889625710484607e-02  5.1702797250353427e-01  6.2859786784063976e-01  4.0261499944798601e-01  9.7621544746461342e-01  2.0605028718898147e-01  3.3025417785476180e-01  3.4590870167859555e-01  5.4523394966393246e-01  1.1820843494738373e-01  8.8287341488068316e-01  3.1248895653628690e-03  5.0259086770471908e-03  5.4705174622803676e-01  9.4233509021026063e-01  9.9999642775113673e-01  7.0254651091422349e-01  6.3942380955216922e-05  3.4882645831742194e-07  5.4784103128025572e-07  -3.7290944186224367e-05  1.0000760084732039e+00  9.9999923834378079e-01  9.9999996269090508e-01  7.9230435606721095e-01  4.1145874449569242e-01  9.9737271647194636e-01  2.1867410384019800e-01  1.6447394136708562e-01  8.8446592350803421e-01  9.5814817191983492e-01  7.4711407546629860e-01  2.3056932085608539e-01  1.9689676056106584e-01  5.3745033902370154e-01  5.4607224618297245e-01  1.1614362389442321e-06  9.9999982613375948e-01  8.7249826220862103e-01  2.6748674214155532e-01  4.2159251231879941e-01  4.1547888418519235e-01  8.1901169054896106e-01  1.5736361553943706e-01  -2.5139719484680433e-07  9.9999998084329178e-01  6.5735749765163776e-01  2.5312535053859880e-01  2.1568386681692386e-01  2.4322065233353823e-01  4.1935000536347283e-01  7.3114700599723359e-01  7.2212514881086920e-01  1.5440438234125226e-01  5.6156087119924369e-01  5.8535073883284716e-01  9.1125264719558885e-01  9.2417760615739364e-01  9.7214330090153012e-01  8.9914283793141636e-01  8.5447523318805185e-01  6.5575024778269375e-01  2.9515721440561549e-01  7.0965585316702995e-01  9.2054323270687910e-01  7.6551634405186708e-01  3.0464865456163936e-01  4.3595239609616132e-01  2.5239916686108793e-01  2.8944367752998151e-01  9.4560532837093736e-01  2.9721462286193465e-02  6.0649421926373692e-01  9.3612760178363419e-01  1.0002746882475744e+00  1.0001515372447232e+00  1.0002408811488797e+00  9.8700435842939493e-01  5.9031107312489717e-01  6.7431938776159761e-01  6.9139480133359543e-01  5.9831552459806092e-01  3.0530216103410457e-01  8.4491700580367068e-01  7.6968042133161785e-01  3.1225324240795765e-01  3.7762786065721954e-01  6.7913361067787070e-01  7.5588894321276334e-01  1.9177904465511808e-01  4.9793383631083254e-01  9.9999943344890307e-01  5.3981369186619759e-03  1.7277794691502463e-01  1.2304715379467912e-03  -4.0606239443198160e-04  5.6476145450500696e-05  1.0000241151820601e+00  4.5658423334612258e-01  -8.4775471898791634e-04  6.4184111329452154e-01  9.0297351720389629e-01  4.3841442846225498e-01  7.3661879478378622e-01  8.2050996942150789e-01  7.8869877566303892e-01  6.0818695816543322e-01  4.6891498833244984e-02  5.5994669465917447e-02  4.3364762225489728e-01  9.7721918567705057e-01  9.9999999999999944e-01  -2.9332733580552009e-07  6.5222726001726383e-01  2.1767728314768189e-01  2.2862464282180320e-01  9.9097638681239064e-01  8.1231292122913235e-01  6.3423743376526598e-01  2.8853592390033456e-01  7.6258618864607974e-01  1.0000000021747331e+00  -9.3164337323752938e-08  4.6421944533226761e-01  -1.6043855392936401e-02  6.8786044782935674e-01  9.2947263313197075e-06  9.9998988968025393e-01  3.6633446047181684e-01  2.1717857784958572e-01  8.7012472279149022e-01  4.2552158529140410e-01  3.2992377778428972e-01  8.8116588810912189e-01  4.0283738082965781e-01  7.3123388623130048e-01  3.9798891185506141e-01  4.2383891813668167e-01  1.8433829109067856e-01  7.2517526586024939e-01  3.3528959624656068e-01  2.4029386548038503e-01  9.3579532956323985e-02  3.9132746861807573e-02  4.8523439508862447e-02  7.7636294231099787e-02  3.6918384656401154e-01  4.5073962162142983e-01  3.1496932914406411e-01  1.0000015211050002e+00  1.7431563546379731e-05  -3.1881564739409890e-06  1.0996520059013408e-01  1.0000000305154824e+00  3.5467875424427825e-01  2.8889213159676713e-01  7.8169261322622341e-01  6.9599304259289707e-01  7.2653929290103825e-01  7.9545137465923654e-01  7.7532112358584604e-01  9.9210337637634816e-01  1.4444500956381962e-01  1.1409481572473802e-01  1.5043679958649675e-01  1.0000421130533919e+00  9.9983588940669976e-01  6.7926028094922752e-01  6.5151343855832433e-01  8.2639926796870589e-01  8.3840439426309543e-01  3.9476537918815846e-01  1.0001451219096265e+00  8.0860835061403469e-01  1.0018980680757379e+00  9.9784932724129938e-01  9.9963849833923979e-01  6.2435225908035663e-01  7.1808072730795014e-01  5.8874566571458364e-01  5.1454161504013374e-01  8.5396309144088273e-02  2.9134369270045246e-01  4.6262141682805613e-01  6.9848643762208817e-01  7.5694906996883626e-01  6.1398837047147725e-01  2.5909727237186402e-07  8.5940250710880350e-01  3.7375900439630044e-01  3.0043720511874267e-01  3.2025871010654672e-01  9.9911964767263828e-01  1.8124745098914111e-01  9.9990455586670823e-01  7.4745694961151687e-01  6.4348751143349670e-01  9.8567776805562846e-01  6.1154862163538981e-06  -1.5005560614781367e-03  8.1151645429789998e-01  1.4843805171280342e-02  2.2622082746419755e-01  8.4724911785256074e-01  5.9847857891706024e-01  8.0194288412234138e-01  8.2831593541770687e-01  3.7274673877110215e-01  7.2537488565684471e-01  4.0719362620847598e-02  2.8071978192406805e-01  1.0000000084452363e+00  -4.2906138610315623e-07  9.9999988676482576e-01  2.8452772627960299e-01  3.8774722844759307e-01  4.1923976344253505e-01  -1.2663260664322669e-03  6.4039796743047861e-01  8.8789712278923161e-01  2.4941283747183476e-02  9.8381790092514221e-01  3.3668617766936909e-01  3.1782663304484277e-01  8.0889043998891141e-01  8.1785029933794207e-01  7.8543759342642350e-01  1.2719572776620619e-01  7.8876270278803540e-01  2.7341483795137161e-01  1.2675155316079603e-01  9.9997442164735745e-02  1.8125465133561788e-01  6.7726468217317148e-01  4.1460724719970615e-01  8.2331797313480393e-02  1.6965030883450541e-01  9.1428161129186658e-01  7.1139356337074244e-01  7.7625885610271628e-01  2.9399550111112277e-01  4.5914556575414140e-03  7.4604042971110729e-01  8.4422478805358192e-01  9.5289398498214906e-01  8.1460250771050102e-01  8.3788590009594222e-01  2.6775730938527958e-01  4.2422271293803060e-01  3.5653263664196100e-01  7.1862097645838637e-05  6.7918850610110537e-01  1.0937275784460300e-01  9.0010130880347383e-01  9.7287188570558858e-01  7.9339327195553977e-01  7.7621567593183805e-01  8.7765713751243024e-01  9.7484640119550903e-01  2.7073808081520234e-01  9.4308157619950572e-01  6.5571295767080007e-01  2.5600191327739469e-01  2.4806589418800729e-01  2.0368763792172884e-01  7.6049941392991627e-01  9.8195421016534112e-01  1.8811869197955691e-01  1.3910293727533851e-01  9.2158384859775455e-01  3.0823222744412798e-01  2.9312983273404730e-01  2.6655758645576832e-01  8.6830189308875583e-01  9.1545922591450613e-01  9.9999634410769089e-01  6.2042505486375721e-01  2.3713800286292339e-01  2.5640682480827659e-01  1.0003744441171580e+00  -6.5064436446623554e-04  1.0002523250123181e+00  6.4196081301534317e-03  2.0393233009631791e-04  2.8813968205758027e-03  -3.0518665440696944e-22  4.3099168497741268e-06  1.4617849217204123e-06  1.0000000000000009e+00  -2.1557606716968055e-22  1.0716987705382357e-03  1.0002757899095851e+00  9.9997356816301419e-01  4.5185148134359743e-01  9.8887102639321034e-01  4.2024154931569146e-01  1.0000000447681285e+00  9.6403124364611747e-01  7.2061525886329969e-02  9.9469668311856896e-01  8.3163973365502436e-02  1.0000000528071167e+00  7.3426298989463257e-01  9.5756434864883189e-01  8.4132614227158320e-01  5.3845085076125898e-01  4.1460914466303617e-01  3.0942493842144075e-01  2.4869233683760500e-01  2.2344711081654689e-01  3.1627860607705155e-01  2.3262791005565853e-01  8.9180223330733033e-01  1.6724404061655423e-01  8.4260597613248367e-01  7.5195090295378419e-01  2.5710562660276204e-01  6.8147228109538971e-01  8.6977177185219223e-01  8.0030693826918908e-01  4.5021986569039868e-01  7.9776410713094770e-02  6.4149061978252528e-02  3.3738869558394080e-01  4.8728671550905400e-01  7.7284439384163206e-01  3.9342149533392062e-01  2.6901677633305338e-01  3.6332828301709569e-01  5.6243627349620240e-01  9.9989540748040673e-01  7.4837621685402689e-01  9.3683901497018096e-01  8.3758518635048373e-01  7.5990145922106056e-01  -6.1661583512365723e-05  7.6663290331952239e-01  -1.7231321434442136e-06  9.9988631334872180e-01  8.6915435115555340e-01  5.6164158350779780e-01  4.3950611181385041e-01  2.2491923094623084e-01  3.3119907879032850e-01  4.5042543494082754e-01  9.6952874433036595e-01  7.5586777265272798e-01  6.8260508843765977e-01  9.9999980106218034e-01  1.0812809492481565e-01  3.6233012764134243e-01  4.7783654769416645e-01  4.4205559888406470e-01  2.0750744010104637e-03  3.4506807876023290e-04  -2.5365030330358147e-02  7.8561308329664814e-01  6.4110354284710247e-01  4.6683771658250406e-01  8.5109783734408284e-01  6.6781064218310093e-01  7.6218959684698095e-01  7.6816406607073118e-01  4.5603415064421920e-02  7.3087581934963830e-01  9.9233568015528983e-01  3.3404802950621720e-01  1.8689557283571914e-01  8.9103472396399130e-01  4.2397316201107893e-01  4.4500744178398388e-01  8.1383629353284292e-01  9.1719323737721981e-01  5.2301646818565466e-02  6.4205254712658633e-01  6.9443657378786616e-01  5.0956038740620047e-01  7.4030387684426235e-01  3.2832935859205653e-01  4.2204806953852786e-01  1.0000000489375620e+00  5.7463148978597667e-01  7.2733573892206960e-01  2.5832560952594030e-01  5.5755356155761915e-01  1.1503779015299199e-01  -1.6753357012641208e-06  3.0713005339902738e-01  2.3862702641243788e-01  8.2630445501082631e-02  9.2774583959313928e-01  9.9362971623987295e-01  7.2867947716538672e-01  8.9539217936976867e-01  4.8637274815465142e-01  1.7666343771139176e-01  5.0628928736879197e-01  5.1289642943122835e-07  1.3404195778980255e-01  7.7972025424343416e-01  2.9236348171231091e-01  4.1513280060048391e-01  8.1723305614146902e-01  1.4492019182414709e-01  -1.2493375050311754e-03  6.1891438233235818e-01  5.0994716899142334e-01  8.6411183250046308e-01  6.1164402879724344e-01  3.2161131458968401e-01  3.1751591701978382e-01  1.4054724456861309e-01  5.7319809792045195e-01  5.3618149081337818e-01  9.7257988343103763e-01  -2.4796233560680441e-05  -1.0586668552954103e-04  1.0000047428616943e+00  3.1550609141632163e-01  8.0631541762133463e-01  9.9985163691164003e-01  9.9970498852793621e-01  9.9999336361646229e-01  9.9420640055224296e-01  6.4636919137055093e-01  4.5319284214575661e-01  6.3842423879935462e-01  2.8176046279535977e-01  4.2284601635041003e-01  1.9107042461592033e-01  5.3250236309856736e-01  8.5855202838310707e-01  8.5394094809267318e-01  9.0496490171726263e-01  2.9869487519652963e-07  9.5362476871788704e-01  1.0000000175315309e+00  5.3804412587871930e-01  5.0975294748583444e-01  8.9408907599407539e-01  4.0659981543944523e-01  3.7983274425358771e-01  9.9040259082949478e-01  1.0000285551962458e+00  -3.6760638179393719e-03  9.3931078176040217e-01  -7.9250341761367330e-06  1.7152512429833983e-01  8.8665612930254156e-02  9.9999072586381033e-01  1.0000193862166769e+00  1.7749648054356698e-04  8.3544024712933751e-01  8.8251374140688310e-01  9.5180794282229930e-01  4.5363419647446701e-01  6.7169909110445336e-01  9.9999972288748051e-01  -2.5196938512639784e-04  1.2663862042777743e-01  -6.5603806842369494e-04  9.9956738903307174e-01  9.9953337632751937e-01  3.0824128330429429e-01  4.3022140401915093e-01  6.6849475044306261e-01  3.7216675316441822e-01  3.1013591360881554e-01  3.1412810159705556e-01  5.2754980403473239e-01  4.1431385240428004e-01  6.3486661711984216e-01  1.9600922600136866e-01  3.3235116841822276e-01  2.6886518552847150e-01  9.0087895180588240e-01  6.2623727744874280e-01  8.0181543437773872e-01  6.1045979283145424e-01  4.7406516073667804e-01  2.9846169444255066e-01  2.9635179691888669e-01  3.3873174808498457e-01  3.5942474164675792e-01  1.2377182176901591e-02  6.2059161654201341e-02  8.7616010876508128e-03  8.4883689828647868e-01  8.1041136550545878e-01  7.2666248681943313e-01  6.9533211095219705e-01  8.7327445450151742e-01  7.9766827490725778e-01  6.2427717270429839e-01  8.3968138207276033e-01  7.5484168754185055e-01  7.1532770951018720e-01  5.7659323118118910e-01  9.9200743524333312e-01  9.3652640110061380e-01  4.9638746300660641e-01  7.6626548313880238e-01  6.7323806522263585e-01  5.6703103993612358e-01  7.2516168464501818e-01  7.8338445312920379e-01  6.8057968729675322e-01  7.6934086305145710e-01  7.6356887207391577e-01  5.5178436795644803e-01  8.2422548626687009e-01  5.4006586452168237e-01  5.8163264667272130e-01  2.5581076730190133e-01  8.4511636993217387e-01  6.1771401802786652e-01  -9.6504068083463778e-08  6.1440754874815096e-01  6.6022199135136561e-01  1.5281854123667208e-04  4.5348749325146626e-01  9.8339857710556189e-01  9.3655099118397778e-01  8.6896670351470617e-01  3.3838967095166841e-03  1.2666330565032831e-02  7.3487743363630642e-01  2.7180700619954895e-01  8.9459575816191517e-01  9.1722463937672283e-01  9.5685122359146210e-02  3.4090821332008631e-01  3.1806019622034187e-01  3.5471758032661066e-01  2.2645043356548530e-01  9.9857912693476236e-01  5.2465347904939930e-01  4.2998582790376338e-01  6.7581637488590240e-01  6.1881470558812890e-01  4.0315779120177325e-01  4.2050701602468316e-01  1.4596574724903047e-01  1.8288486717803965e-01  3.2738844916547738e-01  1.6752079839300821e-01  7.4954281475868481e-02  1.5228252632538120e-01  9.9999996887129017e-01  2.6707962161823320e-03  2.1832308517238547e-01  2.2504412751846542e-01  3.6131860561607837e-01  1.0709891369068154e-01  6.8723815754616580e-01  4.5106602921673655e-01  7.3999861892383800e-01  -9.6379188833017513e-07  2.8531077474580051e-02  4.5922103215274757e-01  6.0625195590727210e-01  -5.9877195405740940e-06  8.4226393988938342e-01  8.9090873670180315e-01  7.8527494827033206e-01  5.6864876703187732e-02  1.0766924664899430e-03  1.0000029229344023e+00  4.9742254015660220e-01  9.8306555289002007e-01  9.5849100341769300e-01  8.6325444600299583e-01  5.6159345176503772e-01  7.8314359899320518e-01  6.4517675628884608e-01  3.0503427295133122e-02  9.9998178299314389e-01  9.9999946330967582e-01  1.4222702615558386e-04  5.0825133199257566e-01  5.9473921063154054e-08  1.8063058190289664e-06  1.2141282605209462e-02  2.6805845789443072e-01  1.0000000183411324e+00  9.9960561150859395e-01  1.0000000575068384e+00  3.9936767519276917e-01  3.1707037154887502e-01  9.8510833662862174e-01  2.8781512244397911e-01  1.0000006599901918e+00  6.7472063021378301e-02  1.2414882523075499e-01  8.5612862514198851e-01  4.4103773050117832e-02  9.3893374422082942e-01  9.7655930944148606e-01  6.0550028880149509e-01  4.0693188067934127e-01  8.0172774258206458e-02  6.9355274083886209e-01  6.9518720473154261e-01  7.5120543372518578e-01  8.0516442512241559e-01  7.0366110550101224e-01  1.0000001936932417e+00  3.2011469485030924e-01  3.5708559857609051e-01  6.2945347684020447e-01  9.9880217097711055e-01  1.0001100981615707e+00  7.0049665922533189e-01  2.9042510028457380e-01  -2.6068443683964429e-06  2.5393116882945244e-01  6.5025453320243110e-01  2.6243497879353311e-01  2.0529433127554628e-01  2.6009336483027690e-01  5.3159123871776837e-01  3.5328422636250745e-01  1.8990704063639646e-01  1.5067261182014738e-01  1.9094583886374419e-01  7.5996869440553361e-01  7.9519003384893844e-02  9.4959683834090014e-01  2.5593369817981676e-01  9.5264336616968393e-01  9.3620479865060757e-01  9.0302187099989473e-01  9.9988911489109045e-01  1.0002428807157846e+00  8.026429773