<?xml version="1.0"?>
<VTKFile type="UnstructuredGrid"  version="0.1"  >
<UnstructuredGrid>
<Piece  NumberOfPoints="1079" NumberOfCells="1944">
<Points>
<DataArray  type="Float64"  NumberOfComponents="3"  format="ascii">0.08500000000000001 0.02 0  0.005 0.02 0  0.005 0.03 0  0 0.03 0  0 0 0  0.005 0 0  0.005 0.01 0  0.08500000000000001 0.01 0  0 0.015 0  0 0.0075 0  0 0.0225 0  0.04500000000000001 0.02 0  0.04500000000000001 0.01 0  0.025 0.01 0  0.025 0.02 0  0.065 0.02 0  0.065 0.01 0  0.035 0.02 0  0.035 0.01 0  0.07500000000000001 0.02 0  0.07500000000000001 0.01 0  0.015 0.02 0  0.015 0.01 0  0.05500000000000001 0.01 0  0.05500000000000001 0.02 0  0.07000000000000001 0.01 0  0.07000000000000001 0.02 0  0.05 0.01 0  0.03 0.01 0  0.03 0.02 0  0.04000000000000001 0.01 0  0.01 0.01 0  0.02 0.02 0  0.06 0.015 0  0.08500000000000001 0.015 0  0.05 0.02 0  0.07250000000000001 0.015 0  0.04000000000000001 0.02 0  0.03750000000000001 0.015 0  0.0525 0.015 0  0.02 0.01 0  0.01 0.02 0  0.0275 0.015 0  0.0125 0.015 0  0.08000000000000002 0.01 0  0.08000000000000002 0.02 0  0.0325 0.014375 0  0.04291666666666667 0.015 0  0.065 0.015 0  0.005 0.005 0  0.005 0.015 0  0.02208333333333334 0.015 0  0.07791666666666668 0.015 0  0.005 0.025 0  0.06 0.01 0  0.06 0.02 0  0.01729166666666667 0.01572916666666667 0  0.04770833333333334 0.01427083333333334 0  0.06875000000000001 0.01625 0  0.008750000000000001 0.01625 0  0.05625000000000001 0.01625 0  0 0.00375 0  0 0.01875 0  0 0.01125 0  0 0.02625 0  0.08145833333333334 0.01354166666666667 0  0.0675 0.01 0  0.0075 0.0125 0  0.0625 0.0175 0  0.0575 0.0125 0  0.0625 0.0125 0  0.08207465277777778 0.01707465277777778 0  0.06767857142857144 0.01321428571428571 0  0.0175 0.01 0  0.01875 0.01291382575757576 0  0.0475 0.02 0  0.04564168086314595 0.01679860519591141 0  0.00296875 0.0125 0  0.0025 0.03 0  0.0025 0 0  0.00296875 0.0175 0  0.01521990740740741 0.0132349537037037 0  0.0497800925925926 0.0167650462962963 0  0.0325 0.02 0  0.03474264705882353 0.01674632352941176 0  0.03750000000000001 0.02 0  0.03025735294117647 0.01674632352941176 0  0.0275 0.02 0  0.0525 0.02 0  0.0125 0.01 0  0.04020833333333334 0.01322916666666667 0  0.03750000000000001 0.01 0  0.0225 0.02 0  0.02479166666666667 0.01677083333333333 0  0.07520833333333335 0.01322916666666667 0  0.07250000000000001 0.01 0  0.07520833333333335 0.01677083333333334 0  0.07250000000000001 0.02 0  0.04020833333333334 0.01677083333333333 0  0.0225 0.01 0  0.02375 0.01262152777777778 0  0.04250000000000001 0.02 0  0.04250000000000001 0.01 0  0.07750000000000001 0.01 0  0.07750000000000001 0.02 0  0.05036151960784314 0.01294424019607843 0  0.0705560064935065 0.01284699675324675 0  0.05458333333333334 0.01291666666666666 0  0.0021875 0.024375 0  0.005 0.0275 0  0.01125 0.0175 0  0.01463848039215686 0.01705575980392157 0  0.01 0.01375 0  0.03625 0.0125 0  0.0021875 0.009375 0  0.05375000000000001 0.0175 0  0.07125000000000001 0.0175 0  0.005 0.0025 0  0.0021875 0.005625 0  0.02655220103578155 0.01234889948210923 0  0.002187499999999999 0.020625 0  0.02979166666666667 0.01302083333333333 0  0.0525 0.01 0  0.07895833333333334 0.0125 0  0.01994277885235332 0.01704213007736944 0  0.07934656179076068 0.01733823814273861 0  0.04505722114764669 0.01295786992263056 0  0.06625 0.0175 0  0.006250000000000001 0.0175 0  0.05750000000000001 0.02 0  0.05875000000000001 0.0175 0  0.005 0.0225 0  0.005 0.0075 0  0.002375 0.027375 0  0.002375 0.002625000000000001 0  0.0475 0.01 0  0.0175 0.02 0  0.0325 0.01 0  0.03375 0.0121875 0  0.04261299435028249 0.01749205508474576 0  0.08500000000000001 0.0125 0  0.08250000000000002 0.01 0  0.02121963399965531 0.01224824108143494 0  0.0675 0.02 0  0.0125 0.02 0  0.02720152243589744 0.0175 0  0.03715165441176471 0.0175 0  0.08500000000000001 0.0175 0  0.0275 0.01 0  0.0025 0.0149560546875 0  0.0075 0.01 0  0.0075 0.02 0  0.06526785714285716 0.0125 0  0.01281031447005516 0.0125 0  0.0625 0.015 0  0.06 0.0125 0  0.05750000000000001 0.01 0  0.0625 0.02 0  0.0625 0.01 0  0.08250000000000002 0.02 0  0.04260103740101855 0.01252623201412851 0  0.02240052247582197 0.01750164767101344 0  0.07293583459427785 0.01238479732953041 0  0.005234374999999999 0.012265625 0  0.03528131980640358 0.01454684009679821 0  0.0325 0.01760027210036557 0  0.02532593822924343 0.01428227733767297 0  0.08009952069819683 0.01527145502895417 0  0.01987282359856536 0.01482587683689801 0  0.04828232595121382 0.01210233572595705 0  0.01671767404878618 0.01789766427404295 0  0.05125 0.01829007549029352 0  0.05247215456215357 0.01288882122882024 0  0.07338729919678716 0.01799385040160642 0  0.03838729919678716 0.01200614959839357 0  0.07717482110586968 0.01780301674207099 0  0.04771860040890012 0.01773306039388322 0  0.03125 0.01160380747126437 0  0.06875000000000001 0.01154265873015873 0  0.07625000000000001 0.01154065860215054 0  0.01625 0.01153997817696946 0  0.068125 0.018125 0  0.05437500000000001 0.015625 0  0.066875 0.015625 0  0.07039794950204951 0.01494384850614853 0  0.05687500000000001 0.018125 0  0.006875 0.015625 0  0.008749999999999999 0.01833333333333333 0  0.010625 0.015625 0  0.05625 0.01416666666666667 0  0.05812500000000001 0.015625 0  0.0449088595298192 0.01494528408816316 0  0 0.016875 0  0 0.013125 0  0.04962452342047931 0.01478673066448802 0  0.0153754765795207 0.01521326933551198 0  0.0771774565913315 0.01322498191305479 0  0.01857756431135545 0.01840228599899994 0  0.04642243568864456 0.01159771400100006 0  0.08125000000000002 0.01155637254901961 0  0.08317650804863432 0.0118234919513657 0  0.08288217288011697 0.01511353252923977 0  0.02837253504384828 0.0117177464035174 0  0.03896057962520807 0.01831163685754031 0  0.01125 0.0114244162490927 0  0.00935910490099115 0.0119067901980177 0  0.02946078431372549 0.01495404411764706 0  0.02875 0.0185829434466942 0  0.002968749999999999 0.0225 0  0.064375 0.016875 0  0.00296875 0.0075 0  0 0.001875 0  0 0.005625 0  0 0.009375 0  0 0.020625 0  0 0.024375 0  0 0.028125 0  0.06062500000000001 0.01812500000000001 0  0.008303571428571429 0.01446428571428572 0  0.01375 0.01865917058160413 0  0.05137790313978056 0.01143372888932909 0  0.04125000000000001 0.01131513063942604 0  0.04101690263896279 0.01844430285842771 0  0.02399563533148224 0.01844349395710867 0  0.08125000000000002 0.01868815426145731 0  0.05354684380692146 0.01145463537600848 0  0.01699195823639423 0.01315138909884649 0  0.07598357371794873 0.015 0  0.04098357371794872 0.015 0  0.003744047619047619 0.00375 0  0.003344630281690141 0.02580853873239437 0  0.04625 0.0187354532243972 0  0.06388392857142858 0.01138392857142858 0  0.06375 0.01375 0  0.05875 0.01375 0  0.06375 0.02 0  0.00622802734375 0.01372802734375 0  0.003630681818181818 0.001369318181818182 0  0.003630681818181818 0.02863068181818182 0  0.06125 0.01625 0  0.06125 0.01125 0  0.05625000000000001 0.01 0  0.05875 0.01125 0  0.06125 0.01375 0  0.08337864763241221 0.0183786476324122 0  0.05213634138653413 0.01674432930673294 0  0.04375000000000001 0.01 0  0.07424178685897437 0.01529258578431373 0  0.03924178685897436 0.01529258578431372 0  0.03410139294454583 0.01843406022904556 0  0.03089860705545417 0.01843406022904556 0  0.02094160484316717 0.01850229584291991 0  0.04375000000000001 0.02 0  0.04437042160883325 0.01820701498672512 0  0.04816311705429156 0.01600061344661149 0  0.07151224904251052 0.0114127410511319 0  0.04395528506193162 0.01639387970349481 0  0.0128750358694518 0.0167500179347259 0  0.02855808448399799 0.01642839899839741 0  0.02812690373330794 0.01340955081400569 0  0.08358500641945087 0.01351822349116885 0  0.05590277777777778 0.01173611111111111 0  0.06683110430364615 0.01164926404662283 0  0.02573206694914602 0.01842532451809762 0  0.01438126661842046 0.01166701193099454 0  0.02384283211216029 0.01526549696571563 0  0.03625 0.02 0  0.004609375000000001 0.0182421875 0  0.003398437500000001 0.01943359375 0  0.001728307845744682 0.01894718251329787 0  0.004377805359085963 0.01656966216675735 0  0.04649673309852075 0.0153889662370871 0  0.03615513600614297 0.01592654988586041 0  0.03316985071935832 0.01598763605018279 0  0.03110111603888768 0.01529816275177977 0  0.01370614113484869 0.0138804542047638 0  0.04930041102671841 0.01842260568883502 0  0.07875000000000001 0.02 0  0.0745395359848485 0.01165101111925709 0  0.03860755698543604 0.01373741558556884 0  0.02605038706571737 0.01573944002207753 0  0.07559826163500957 0.01841729376139847 0  0.04437500000000001 0.01149157931286774 0  0.06874116707361365 0.01454618473032123 0  0.003761917372881356 0.0239307468220339 0  0.003984374999999999 0.01125 0  0.003768503289473684 0.01392539576480263 0  0.001796875 0.0111328125 0  0.003761917372881356 0.008930746822033899 0  0.005 0.00625 0  0.003761917372881355 0.0210692531779661 0  0.06633928571428571 0.01410714285714285 0  0.006484375 0.01125 0  0.08364120589325512 0.01657288979763549 0  0.03576267476503373 0.0184116442851204 0  0.07370875846579374 0.0137848203678562 0  0.06964285714285715 0.01758928571428571 0  0.05520833333333334 0.01833333333333333 0  0.06491071428571429 0.01839285714285714 0  0.0510098951944636 0.01559941474766356 0  0.01786087179886325 0.0115702210443714 0  0.01972197383235524 0.01160576093166696 0  0.01804697593127788 0.01433503795474974 0  0.001644074528704677 0.01642892723865279 0  0.00125 0.03 0  0.001497685185185185 0.001267746913580247 0  0.07315451164202422 0.01643443118912983 0  0.001233906745910645 0.0140625 0  0.01162635071030191 0.01362229857939618 0  0.01528023503083844 0.01845923557506155 0  0.06625 0.02 0  0.07695012019230771 0.01624387078484555 0  0.03139091092855769 0.01320776147621796 0  0.03857339107781042 0.01675295051810485 0  0.001754993120977522 0.02590789105493891 0  0.002288757784711197 0.00412546923654445 0  0.07914382119690884 0.01404430049871201 0  0.001391810103286306 0.01257390899021902 0  0.0419501201923077 0.01614675005432421 0  0.001484375 0.007018229166666667 0  0.001484375 0.02201822916666666 0  0.048
[...]
<PointData  Scalars="concentration"> 
<DataArray  type="Float64"  Name="concentration"  format="ascii">5.3704206521565778e-01  9.8448401879089675e-01  9.9999999999999889e-01  9.9999999999999922e-01  -1.8094575899597477e-21  -9.6122406705821419e-23  3.0843350794333424e-02  5.3608926131466650e-01  5.5152812203238388e-01  2.6944969496871009e-03  9.9907110536460175e-01  5.5161040061832134e-01  5.2156404362646558e-01  4.4919603308227085e-01  6.2346591176328647e-01  5.3916470432372676e-01  5.3395397777982634e-01  5.7271306896782492e-01  5.0010102491324526e-01  5.3764398652129608e-01  5.3549005737875432e-01  7.4373990228889153e-01  3.2596051473411841e-01  5.3030703010608338e-01  5.4281056269419548e-01  5.3489064492907012e-01  5.3824402031098961e-01  5.2683662680228260e-01  4.8000083696902018e-01  5.9262317591767510e-01  5.1320036090825549e-01  2.0872294464499686e-01  6.7078523584863481e-01  5.3656401037109369e-01  5.3656530068458042e-01  5.4624568307403265e-01  5.3656395186566253e-01  5.5986215624739422e-01  5.3656457484196252e-01  5.3655885472310483e-01  4.0148470742672437e-01  8.5227123383397629e-01  5.3672618935814131e-01  5.3940529276392524e-01  5.3587267362606805e-01  5.3726109087632290e-01  5.2730595867509023e-01  5.3657378291561908e-01  5.3656818952365282e-01  6.3526087619466425e-05  5.5083787919673433e-01  5.3667766293684271e-01  5.3656530539134251e-01  9.9998798299025293e-01  5.3253774243485097e-01  5.4059248156196671e-01  5.7851878184043781e-01  5.3374762938667419e-01  5.3731369301833809e-01  6.8983852280610247e-01  5.3882125237090617e-01  7.9878951694325095e-05  9.5358302528862648e-01  7.9876014421950942e-02  9.9998296497722383e-01  5.3628431413754007e-01  5.3449016055431553e-01  2.3748988253242492e-01  5.3896807373581934e-01  5.3287292742863268e-01  5.3418509528752256e-01  5.3692883482555542e-01  5.3542968560179982e-01  3.6793460311125376e-01  4.4112607704215984e-01  5.4867926595905459e-01  5.4456040055074606e-01  1.6944395618664307e-01  9.9999999999999878e-01  5.5061088766427002e-23  8.9343917057390498e-01  4.2369068441526336e-01  5.4203983537431966e-01  5.8160509131730587e-01  5.5672900166565464e-01  5.6566436917186469e-01  5.6645790005707741e-01  6.0681271589884977e-01  5.4434928521457038e-01  2.7311489766338459e-01  5.2385542706828248e-01  5.0753231115101960e-01  6.4528251097695910e-01  5.8545341141584473e-01  5.3598020326779516e-01  5.3522467404495289e-01  5.3714930331425148e-01  5.3790974372843348e-01  5.4927124605606170e-01  4.2831317711651790e-01  4.6764847881394978e-01  5.5529778656534701e-01  5.1779818171891756e-01  5.3569272959240077e-01  5.3743328392378475e-01  5.3066030403485365e-01  5.3552443533824778e-01  5.3243658151956541e-01  9.9997650761524315e-01  9.9999986809159691e-01  7.5025135188009962e-01  6.7256402064759968e-01  4.0739652880799232e-01  5.1252636524060413e-01  1.0696835092096606e-02  5.4169638732164149e-01  5.3767360562385591e-01  1.1291358027044288e-06  1.3756928966622908e-04  4.7777623040550504e-01  9.9634112086522775e-01  5.0161882218510234e-01  5.2879467897333132e-01  5.3600331582323690e-01  6.2125818665486443e-01  5.3708237844167295e-01  5.2724530946381076e-01  5.3827160615230052e-01  8.6026850830438706e-01  5.4160550616586400e-01  5.3989857760371152e-01  9.9964551907441390e-01  1.2458402763700764e-03  1.0000003456451092e+00  -2.7357680551867263e-06  5.2451670206726186e-01  7.0382293513804584e-01  4.9157211172658166e-01  5.0415806115043571e-01  5.5030547948720321e-01  5.3621987338996402e-01  5.3600869091366632e-01  4.4060889103166556e-01  5.3864983897546626e-01  7.9241872342573294e-01  5.8950091266961835e-01  5.5851679954756184e-01  5.3691061805682039e-01  4.6666806478134104e-01  5.4584084553253598e-01  1.2780666583541631e-01  9.1927574502790022e-01  5.3469377323945633e-01  3.4848048631537293e-01  5.3657093627724484e-01  5.3361444218716536e-01  5.3151697332685310e-01  5.3981727872502772e-01  5.3332197422911742e-01  5.3712223281706739e-01  5.2296006289712849e-01  6.1737191989205564e-01  5.3557700585303247e-01  1.5850641564191212e-01  5.3113439915344207e-01  5.7079499570940018e-01  5.1634718428065096e-01  5.3662924185736849e-01  5.2932728370829529e-01  5.2728571099277144e-01  6.8418195135263438e-01  5.4423031369465291e-01  5.3155699645175514e-01  5.3760668117456478e-01  5.1412840404724069e-01  5.3728304163939733e-01  5.4593021630815275e-01  4.9156405740583586e-01  5.3487425865810734e-01  5.3568794834519307e-01  3.6643023833736782e-01  5.3826431246801454e-01  5.3793684952020993e-01  5.3701687399308173e-01  5.3653653794229106e-01  5.4111507373249390e-01  6.3489706272433888e-01  8.4980456780901570e-01  6.0482532863504324e-01  5.3504052510106836e-01  5.3755050738096355e-01  5.3631221113096195e-01  8.1734579001120322e-01  2.6116242168784953e-01  5.3586453197466466e-01  5.5213218085956872e-01  5.3607180894092266e-01  6.7378685481481271e-01  5.2461994217230545e-01  5.3600338632633504e-01  5.3611507624098165e-01  5.3658508853666032e-01  4.7950129245215356e-01  5.5923308446796127e-01  2.6363663472366211e-01  2.3900435221394359e-01  5.3558865592958216e-01  5.9443130291475421e-01  9.9972942807785892e-01  5.3816129521402811e-01  1.0657146112973137e-03  2.5772404846158201e-05  4.1816559588211477e-04  1.6109387648584401e-02  9.9265484040302709e-01  9.9988400989476789e-01  9.9999454000175947e-01  5.3984935184991389e-01  4.7555885716016627e-01  7.5343043585060776e-01  5.2860505253076340e-01  5.1691497862867719e-01  5.5607992418883212e-01  6.2242220713451357e-01  5.3714656213510614e-01  5.3003540711499741e-01  4.3563484656407969e-01  5.3656579398930759e-01  5.3658473756397973e-01  6.2591544687159391e-06  9.9999854508052155e-01  5.4930741254618554e-01  5.3391277081328181e-01  5.3540491482184627e-01  5.3475937730524292e-01  5.3946298522618519e-01  3.5964279350700046e-01  -1.1347326409454058e-07  9.9999994485928090e-01  5.3801750200897680e-01  5.3314917235383230e-01  5.3097278779787882e-01  5.3231418499158134e-01  5.3512161168739769e-01  5.3702628684285969e-01  5.4094249051264243e-01  5.1975283268178352e-01  5.3667831613897798e-01  5.3893792600603896e-01  5.7208220087420492e-01  5.8343742379400232e-01  6.4982608842830314e-01  5.5333224665023684e-01  5.5038540463381147e-01  5.4025532267798038e-01  5.3520978805622388e-01  5.4394702605785317e-01  6.7618358094847764e-01  5.6567361408882022e-01  5.0351177306735251e-01  5.3633171528831913e-01  5.3147610693144043e-01  5.3459580478202184e-01  6.0985874035768506e-01  3.3970941780285457e-01  5.4500563571715699e-01  5.6912970608014612e-01  9.3793224296010269e-01  9.8422368412325878e-01  9.6879072025013913e-01  7.8688529126337137e-01  5.3829732689838894e-01  5.4646549432933433e-01  5.5021775794772609e-01  5.4168475791816395e-01  4.5253618426775921e-01  5.4583276387851620e-01  5.3734399132785671e-01  5.3556293952443468e-01  5.2591818818297598e-01  5.5592166733034909e-01  5.3748855617782421e-01  5.2204771441438047e-01  5.3628918940522829e-01  9.9995916383972849e-01  6.3439361710617731e-02  3.6967100614649306e-01  6.1757344725554095e-02  5.9084497814225739e-03  2.9676464491043650e-04  9.9813132656856129e-01  5.3589879015590203e-01  1.1630833927767231e-01  5.3681132081018224e-01  5.6717805260407916e-01  5.3609336196234669e-01  5.3787273435425664e-01  5.4205056544777519e-01  5.3891385151848170e-01  5.3832969136770537e-01  3.8929418293373536e-01  4.1171726030593842e-01  5.0261618425993326e-01  7.7275541693722083e-01  9.9999999999999967e-01  -1.3017537620738847e-06  5.3714696580457832e-01  3.9339241074601478e-01  4.1460059582349729e-01  7.2168531267328462e-01  5.3889588170187730e-01  5.3693316360180410e-01  5.0864327339049509e-01  5.5109815736042245e-01  9.9999444679118199e-01  1.8029802199993522e-05  5.3633389050936309e-01  1.8186975298626162e-01  5.4391586244712353e-01  7.7448936530439920e-04  9.9924676548224800e-01  5.3134164822281837e-01  5.2754601430557924e-01  6.3172113083718173e-01  5.3367855241865025e-01  5.2909950543795614e-01  6.2619868241157883e-01  5.3045058480557628e-01  5.7359939776654556e-01  5.2925415043567736e-01  5.3407312093381032e-01  5.1595390269799124e-01  5.8487661179553729e-01  4.8919196948603855e-01  4.7391958065582579e-01  4.5909133442817057e-01  4.3875568517529884e-01  4.5786908218590200e-01  4.3968068964457935e-01  5.3543412184118300e-01  5.3607591106238961e-01  5.3578982943079700e-01  9.9983893577484795e-01  1.0155741894534047e-04  5.1532227088338248e-03  4.8401156274589718e-01  1.0000002315862917e+00  5.0737029716270710e-01  5.1526459589392370e-01  5.3807172906731127e-01  5.3777638700774189e-01  5.4021078001675127e-01  5.3865353208378453e-01  5.3786409721878936e-01  7.6523159468106916e-01  5.0377576200692187e-01  5.0422147535985462e-01  5.0869221249037977e-01  8.0838333472838853e-01  9.5373230339215642e-01  5.3848453076277991e-01  5.3755676022000842e-01  5.4107693471332075e-01  5.4359839201534355e-01  5.2524480118726902e-01  8.1992580555020922e-01  5.3946552408912807e-01  8.2537756757549308e-01  7.7780636852607099e-01  9.0640621426196621e-01  5.3706149488953536e-01  5.3947257038677565e-01  5.3670496856044103e-01  5.3331863710226113e-01  3.2701092377604246e-01  5.3503927968658338e-01  5.3508642238011517e-01  5.3702733661252011e-01  5.3726253885468889e-01  5.3681743513748148e-01  1.1057316708580526e-04  5.4357072986131172e-01  5.3609413494250191e-01  5.3579025353801435e-01  5.3591014467193154e-01  7.2299060460390063e-01  5.2576587544274489e-01  9.0873984799860741e-01  5.5785548485731129e-01  5.3723414843361461e-01  7.3732544578018289e-01  1.6991627911623680e-01  1.6888363642040338e-01  5.8659207422460991e-01  3.8544020382397615e-01  4.8372992510110280e-01  5.4217153502796867e-01  5.3716648390922850e-01  5.3843386311979724e-01  5.4017223676549542e-01  5.0280051926688063e-01  5.4306506058126847e-01  3.0952375115231134e-01  5.1840953500852593e-01  9.9999665791751335e-01  2.4053885337436956e-05  9.9999984964461597e-01  5.3536616874297627e-01  4.8532263785894841e-01  5.2151356324529585e-01  2.8787742930475150e-02  5.5836655660028212e-01  5.5344709162017325e-01  4.1482442798283203e-01  7.4128298111079460e-01  5.3611994670722651e-01  5.3606516302140617e-01  5.3976506970797689e-01  5.4053425096987406e-01  5.3776876651094441e-01  5.1049899075610472e-01  5.3827645311535899e-01  5.0999508524094783e-01  4.9527077753315574e-01  4.9624706203409552e-01  4.4970648184797685e-01  5.6388736423641794e-01  5.3457829969727433e-01  4.6833542678994028e-01  5.1957092761297252e-01  5.6549404833457739e-01  5.4839992739554799e-01  5.8247274699802798e-01  5.3537919246155108e-01  2.9881071674939391e-01  5.6490045661213451e-01  5.8543788706346422e-01  6.0264461741284903e-01  5.5847861346423933e-01  6.3507431394846026e-01  5.3414248082489668e-01  5.3553667926889370e-01  5.3508746418248865e-01  2.6450976731604372e-02  5.3963269607381958e-01  3.3317581193234236e-01  6.1970638708915893e-01  6.3677032570817615e-01  5.3806474751080413e-01  5.3752893639776789e-01  5.4739013107717793e-01  6.1469593516019461e-01  5.3505504725659736e-01  5.7688558465090378e-01  5.3787031503522542e-01  5.3424246758352079e-01  5.3366727233826439e-01  5.2958044796808590e-01  5.3718752951004145e-01  6.3350709202128641e-01  5.2780230436869835e-01  5.1552823262626801e-01  5.6259759676078214e-01  5.3594419541764982e-01  5.3559741054367493e-01  5.3469949341154943e-01  5.4525021284758024e-01  5.5766092468697637e-01  9.9993758097998076e-01  5.3675242478696972e-01  5.3180998630350484e-01  5.3350136072469045e-01  7.6843656853979847e-01  2.4059974421420166e-01  8.8358914483479867e-01  3.4773993346524162e-01  4.7331692831131585e-03  3.0060193261430473e-01  -2.3081871081151364e-22  9.0706020613887040e-06  -8.0953679378320438e-09  1.0000000000000011e+00  -1.0152937357023665e-21  7.8487377748375664e-02  9.4179113868347553e-01  9.9820370690409277e-01  5.3637727376095090e-01  6.5742089785989755e-01  5.3526226062306503e-01  9.9999889721834401e-01  5.9910037422828333e-01  4.7405236331596556e-01  6.8636826784521043e-01  4.8630733263864634e-01  9.9999993667796128e-01  5.3701193771139044e-01  5.8707612650528773e-01  5.4305932336360752e-01  5.3656082345591893e-01  5.3494302535409699e-01  5.3326832878485075e-01  5.3277373677090678e-01  5.3204204394716248e-01  5.3390659092851966e-01  5.3293525817178222e-01  5.5010284524702968e-01  5.2308712345273767e-01  5.4108539064942762e-01  5.3706744328364497e-01  5.2173720443835858e-01  5.3706761838139383e-01  5.4754668769247383e-01  5.5060384662636119e-01  5.3312524283518348e-01  3.1279154805113779e-01  4.4525315776871172e-01  5.3295670498936032e-01  5.3618161402243336e-01  5.3765650542557386e-01  5.3620971237706816e-01  5.2480437282904846e-01  5.3560641931389996e-01  5.3698365690207550e-01  9.8069848133230764e-01  6.0075952244925168e-01  5.8106320377095189e-01  5.6477952793428832e-01  5.3735091424556169e-01  4.5304559462042610e-04  5.3745795011356212e-01  1.1709258689150404e-08  9.8963151722505449e-01  5.8005965096470613e-01  5.3692105678878310e-01  5.3594402910324646e-01  5.3050760221101501e-01  5.3454433381822353e-01  5.3631090806273207e-01  6.5709733789240410e-01  5.4227118270930330e-01  5.7234532827865270e-01  9.9996741852145588e-01  3.8018277706519626e-01  5.3575255678595535e-01  5.3630023424240203e-01  5.3044203205177720e-01  7.2319381243069455e-02  1.9540337230674046e-01  1.5538475364265555e-01  5.4420556197514935e-01  5.4426208853014990e-01  5.3639256522136336e-01  5.7172359179030963e-01  5.5509786604302502e-01  5.3887363896015639e-01  5.4076608125879910e-01  4.2327206082619595e-01  5.3744743178306831e-01  6.9645714708116968e-01  5.2987612930596484e-01  5.2547227791342099e-01  6.3649662603911550e-01  5.3597304047124550e-01  4.8976115952958871e-01  5.4669617348438193e-01  5.6342161095510546e-01  3.2700043492462899e-01  5.3688048011624612e-01  5.3719051037309884e-01  5.3649003472864598e-01  5.7887615787702340e-01  4.8194482023872554e-01  4.7297577684699110e-01  9.9999963763983024e-01  5.3683063274338105e-01  5.3758261224620973e-01  5.1936870839650073e-01  5.2521464635851522e-01  4.9871928098665191e-01  3.7052907865136746e-04  5.1504901144149917e-01  5.2970056090088780e-01  4.6282414128095800e-01  5.8773810056234710e-01  7.1454605077077138e-01  5.3705865345281201e-01  5.5537343439019560e-01  5.3637600767782778e-01  5.2257989752504408e-01  5.1503574922310125e-01  9.4169458584951049e-08  5.0980915738545163e-01  5.3779818839253979e-01  4.9163030042907141e-01  5.3615011704119719e-01  5.4435694935499934e-01  3.5624049744680014e-01  2.1810564941687063e-02  5.3676801879646363e-01  5.3650366726956522e-01  5.4554005362509950e-01  5.4285796114576435e-01  5.3195254212375853e-01  5.3103180805805639e-01  5.1236439650168319e-01  5.3679644087985234e-01  5.3038876135677893e-01  7.1213634751720045e-01  3.0984504418387168e-04  1.8571547771572847e-03  9.9976864919734754e-01  4.5039604877513756e-01  5.3896504686928515e-01  8.5157584268910269e-01  8.5808733499405632e-01  8.9420280881166703e-01  7.8647246073220656e-01  5.3707391650925118e-01  5.3622486380102929e-01  5.4270050892380817e-01  5.2912612991824071e-01  5.3383887811329878e-01  5.0025884008564814e-01  5.3534599907181946e-01  5.4461407820649554e-01  5.5556921334945597e-01  5.5888936386873844e-01  4.4642609295362064e-06  6.8171666055172331e-01  9.9999930456257202e-01  5.3656697595103464e-01  5.2945703529325572e-01  5.8726673552648145e-01  5.2693210728237605e-01  5.1503849867170692e-01  6.7591208749027432e-01  9.9660109721952472e-01  7.8966103388698292e-02  5.7819429627605634e-01  2.7718005845905009e-05  4.9363609406151493e-01  4.8449614897469429e-01  9.9958104973535766e-01  9.9890405369146817e-01  1.5892420900376289e-03  5.4843578335685916e-01  5.5082135775358154e-01  6.6358823033177061e-01  5.2620027950077475e-01  5.4258110839451568e-01  9.9991939206412839e-01  3.5837512853728690e-03  5.0484493490463256e-01  1.9774240662334067e-01  9.2301447813814752e-01  9.5778050857342867e-01  5.3582122772309271e-01  5.3357770267364257e-01  5.5787246273921254e-01  5.3612857853452134e-01  5.3592040452588718e-01  5.3598857299980274e-01  5.3584865755547217e-01  5.3140499222246618e-01  5.4017010802572463e-01  5.2749989810997044e-01  5.3510072305944800e-01  5.3463094657031862e-01  6.9759337208124217e-01  5.3895730122835972e-01  6.1093680913625814e-01  5.4767723093756071e-01  5.3449499221353647e-01  5.3566695531155684e-01  5.3555202575997940e-01  5.3573592715399165e-01  5.3587464998265855e-01  3.6101460685294817e-01  3.7148120845839727e-01  3.4043193775198621e-01  5.5789738269013844e-01  5.3928980511111468e-01  5.3899821280646387e-01  5.3820420860118967e-01  6.5855429708221813e-01  5.3849331005020629e-01  5.3738276079136216e-01  5.4175882186770152e-01  5.3828413393872998e-01  5.3783834295100075e-01  5.3736895758402714e-01  7.6477367910901040e-01  7.0030039584340575e-01  5.3591968315329830e-01  6.0909903731703952e-01  5.3767379330083787e-01  5.3681483353048343e-01  5.3825027395644431e-01  5.4047056411871031e-01  5.3864995014122119e-01  5.3976040458656904e-01  5.3929226237007100e-01  5.3674436378938484e-01  5.4036755945166071e-01  5.3657659493262055e-01  5.3666665716855066e-01  5.2692933212914550e-01  5.4238670092044750e-01  5.3684708893257072e-01  3.4754876082444054e-06  5.4450995400712332e-01  5.4952954463003822e-01  2.2741308597621596e-01  5.2340263597554548e-01  6.4898743175536178e-01  6.4492048014653236e-01  5.6547539279799497e-01  2.3607839965784064e-01  2.9622167716472542e-01  5.3722530034584848e-01  5.3482359386441136e-01  6.0464154332264830e-01  6.0590756371894372e-01  4.8985115177031946e-01  5.3606872916654147e-01  5.3604919724598621e-01  5.3615477897344521e-01  5.2422233978795507e-01  7.9492807237453100e-01  5.3556023779962503e-01  5.3015709848487769e-01  5.4377092661103266e-01  5.3690021834788371e-01  5.2417355105849184e-01  5.3083963965523562e-01  5.1448026817264481e-01  5.2443888537903460e-01  5.3609187060941199e-01  4.8874363260279524e-01  4.7163001895804751e-01  4.8027779661726544e-01  9.9999250755371816e-01  1.0127294145861487e-01  5.3075117356603418e-01  5.3126522195408232e-01  5.3594646717279604e-01  3.9929262476788541e-01  5.4900183147197512e-01  5.0563514034036383e-01  5.3716696522161633e-01  3.8693227905168970e-05  4.1022755769125036e-01  5.1934651082687289e-01  5.3853642755927333e-01  1.0797518068080443e-03  5.5064519561717429e-01  5.5253820838755019e-01  5.4686549898864822e-01  3.1350288961137207e-01  2.6353505047278103e-01  9.9986344088233803e-01  5.2035584525629253e-01  7.3447345406669329e-01  5.9494613632759508e-01  5.4805071221028434e-01  5.3665928269787111e-01  5.4220516021001341e-01  5.3686845251882409e-01  3.9206375638974489e-01  9.9745896249207555e-01  9.9967146560370779e-01  3.7770895475923431e-02  5.3626770397441836e-01  1.7617814982975367e-04  7.0215951229325056e-03  1.5307343427003581e-01  3.9979797100151471e-01  9.9999223711077279e-01  9.0436011234960367e-01  9.9995835597213811e-01  5.0559599098342534e-01  5.3513524315869176e-01  7.2077481898759432e-01  5.3525910804236165e-01  9.9999589198186845e-01  3.9046912639437792e-01  4.1824833084214491e-01  5.5328470800189633e-01  4.3509718015916504e-01  6.2091956546716121e-01  6.2713452035682649e-01  5.3686205837319445e-01  5.3616491000150479e-01  4.1194448333290906e-01  5.3692766922469615e-01  5.3695061722900073e-01  5.3709657432294566e-01  5.5302585417616368e-01  5.4642948297586391e-01  9.9999993866289671e-01  5.1892408129121748e-01  4.5289898124809647e-01  5.4148515595587399e-01  7.4603148335325886e-01  7.7672174138282424e-01  5.3735186972221682e-01  5.3544631504487994e-01  2.8702947428361371e-05  4.9402125399645147e-01  5.6092391490843740e-01  5.2627814624039115e-01  5.2874169464609455e-01  5.2936071916119842e-01  5.3655166204486870e-01  5.3346180121307785e-01  5.1937005375091672e-01  5.1705768927628093e-01  5.2627021777222815e-01  5.3721415902464675e-01  4.7698780442389455e-01  7.1900500022630631e-01  4.5751734734434824e-01  5.8896294417402095e-01  5.7424400212196980e-01  5.7343991233864799e-01  9.7014537814447011e-01  9.3518097855141036e-01  2.7423478661549913e-02  5.437581018512899