<?xml version="1.0"?>
<VTKFile type="UnstructuredGrid"  version="0.1"  >
<UnstructuredGrid>
<Piece  NumberOfPoints="1079" NumberOfCells="1944">
<Points>
<DataArray  type="Float64"  NumberOfComponents="3"  format="ascii">0.08500000000000001 0.02 0  0.005 0.02 0  0.005 0.03 0  0 0.03 0  0 0 0  0.005 0 0  0.005 0.01 0  0.08500000000000001 0.01 0  0 0.015 0  0 0.0075 0  0 0.0225 0  0.04500000000000001 0.02 0  0.04500000000000001 0.01 0  0.025 0.01 0  0.025 0.02 0  0.065 0.02 0  0.065 0.01 0  0.035 0.02 0  0.035 0.01 0  0.07500000000000001 0.02 0  0.07500000000000001 0.01 0  0.015 0.02 0  0.015 0.01 0  0.05500000000000001 0.01 0  0.05500000000000001 0.02 0  0.07000000000000001 0.01 0  0.07000000000000001 0.02 0  0.05 0.01 0  0.03 0.01 0  0.03 0.02 0  0.04000000000000001 0.01 0  0.01 0.01 0  0.02 0.02 0  0.06 0.015 0  0.08500000000000001 0.015 0  0.05 0.02 0  0.07250000000000001 0.015 0  0.04000000000000001 0.02 0  0.03750000000000001 0.015 0  0.0525 0.015 0  0.02 0.01 0  0.01 0.02 0  0.0275 0.015 0  0.0125 0.015 0  0.08000000000000002 0.01 0  0.08000000000000002 0.02 0  0.0325 0.014375 0  0.04291666666666667 0.015 0  0.065 0.015 0  0.005 0.005 0  0.005 0.015 0  0.02208333333333334 0.015 0  0.07791666666666668 0.015 0  0.005 0.025 0  0.06 0.01 0  0.06 0.02 0  0.01729166666666667 0.01572916666666667 0  0.04770833333333334 0.01427083333333334 0  0.06875000000000001 0.01625 0  0.008750000000000001 0.01625 0  0.05625000000000001 0.01625 0  0 0.00375 0  0 0.01875 0  0 0.01125 0  0 0.02625 0  0.08145833333333334 0.01354166666666667 0  0.0675 0.01 0  0.0075 0.0125 0  0.0625 0.0175 0  0.0575 0.0125 0  0.0625 0.0125 0  0.08207465277777778 0.01707465277777778 0  0.06767857142857144 0.01321428571428571 0  0.0175 0.01 0  0.01875 0.01291382575757576 0  0.0475 0.02 0  0.04564168086314595 0.01679860519591141 0  0.00296875 0.0125 0  0.0025 0.03 0  0.0025 0 0  0.00296875 0.0175 0  0.01521990740740741 0.0132349537037037 0  0.0497800925925926 0.0167650462962963 0  0.0325 0.02 0  0.03474264705882353 0.01674632352941176 0  0.03750000000000001 0.02 0  0.03025735294117647 0.01674632352941176 0  0.0275 0.02 0  0.0525 0.02 0  0.0125 0.01 0  0.04020833333333334 0.01322916666666667 0  0.03750000000000001 0.01 0  0.0225 0.02 0  0.02479166666666667 0.01677083333333333 0  0.07520833333333335 0.01322916666666667 0  0.07250000000000001 0.01 0  0.07520833333333335 0.01677083333333334 0  0.07250000000000001 0.02 0  0.04020833333333334 0.01677083333333333 0  0.0225 0.01 0  0.02375 0.01262152777777778 0  0.04250000000000001 0.02 0  0.04250000000000001 0.01 0  0.07750000000000001 0.01 0  0.07750000000000001 0.02 0  0.05036151960784314 0.01294424019607843 0  0.0705560064935065 0.01284699675324675 0  0.05458333333333334 0.01291666666666666 0  0.0021875 0.024375 0  0.005 0.0275 0  0.01125 0.0175 0  0.01463848039215686 0.01705575980392157 0  0.01 0.01375 0  0.03625 0.0125 0  0.0021875 0.009375 0  0.05375000000000001 0.0175 0  0.07125000000000001 0.0175 0  0.005 0.0025 0  0.0021875 0.005625 0  0.02655220103578155 0.01234889948210923 0  0.002187499999999999 0.020625 0  0.02979166666666667 0.01302083333333333 0  0.0525 0.01 0  0.07895833333333334 0.0125 0  0.01994277885235332 0.01704213007736944 0  0.07934656179076068 0.01733823814273861 0  0.04505722114764669 0.01295786992263056 0  0.06625 0.0175 0  0.006250000000000001 0.0175 0  0.05750000000000001 0.02 0  0.05875000000000001 0.0175 0  0.005 0.0225 0  0.005 0.0075 0  0.002375 0.027375 0  0.002375 0.002625000000000001 0  0.0475 0.01 0  0.0175 0.02 0  0.0325 0.01 0  0.03375 0.0121875 0  0.04261299435028249 0.01749205508474576 0  0.08500000000000001 0.0125 0  0.08250000000000002 0.01 0  0.02121963399965531 0.01224824108143494 0  0.0675 0.02 0  0.0125 0.02 0  0.02720152243589744 0.0175 0  0.03715165441176471 0.0175 0  0.08500000000000001 0.0175 0  0.0275 0.01 0  0.0025 0.0149560546875 0  0.0075 0.01 0  0.0075 0.02 0  0.06526785714285716 0.0125 0  0.01281031447005516 0.0125 0  0.0625 0.015 0  0.06 0.0125 0  0.05750000000000001 0.01 0  0.0625 0.02 0  0.0625 0.01 0  0.08250000000000002 0.02 0  0.04260103740101855 0.01252623201412851 0  0.02240052247582197 0.01750164767101344 0  0.07293583459427785 0.01238479732953041 0  0.005234374999999999 0.012265625 0  0.03528131980640358 0.01454684009679821 0  0.0325 0.01760027210036557 0  0.02532593822924343 0.01428227733767297 0  0.08009952069819683 0.01527145502895417 0  0.01987282359856536 0.01482587683689801 0  0.04828232595121382 0.01210233572595705 0  0.01671767404878618 0.01789766427404295 0  0.05125 0.01829007549029352 0  0.05247215456215357 0.01288882122882024 0  0.07338729919678716 0.01799385040160642 0  0.03838729919678716 0.01200614959839357 0  0.07717482110586968 0.01780301674207099 0  0.04771860040890012 0.01773306039388322 0  0.03125 0.01160380747126437 0  0.06875000000000001 0.01154265873015873 0  0.07625000000000001 0.01154065860215054 0  0.01625 0.01153997817696946 0  0.068125 0.018125 0  0.05437500000000001 0.015625 0  0.066875 0.015625 0  0.07039794950204951 0.01494384850614853 0  0.05687500000000001 0.018125 0  0.006875 0.015625 0  0.008749999999999999 0.01833333333333333 0  0.010625 0.015625 0  0.05625 0.01416666666666667 0  0.05812500000000001 0.015625 0  0.0449088595298192 0.01494528408816316 0  0 0.016875 0  0 0.013125 0  0.04962452342047931 0.01478673066448802 0  0.0153754765795207 0.01521326933551198 0  0.0771774565913315 0.01322498191305479 0  0.01857756431135545 0.01840228599899994 0  0.04642243568864456 0.01159771400100006 0  0.08125000000000002 0.01155637254901961 0  0.08317650804863432 0.0118234919513657 0  0.08288217288011697 0.01511353252923977 0  0.02837253504384828 0.0117177464035174 0  0.03896057962520807 0.01831163685754031 0  0.01125 0.0114244162490927 0  0.00935910490099115 0.0119067901980177 0  0.02946078431372549 0.01495404411764706 0  0.02875 0.0185829434466942 0  0.002968749999999999 0.0225 0  0.064375 0.016875 0  0.00296875 0.0075 0  0 0.001875 0  0 0.005625 0  0 0.009375 0  0 0.020625 0  0 0.024375 0  0 0.028125 0  0.06062500000000001 0.01812500000000001 0  0.008303571428571429 0.01446428571428572 0  0.01375 0.01865917058160413 0  0.05137790313978056 0.01143372888932909 0  0.04125000000000001 0.01131513063942604 0  0.04101690263896279 0.01844430285842771 0  0.02399563533148224 0.01844349395710867 0  0.08125000000000002 0.01868815426145731 0  0.05354684380692146 0.01145463537600848 0  0.01699195823639423 0.01315138909884649 0  0.07598357371794873 0.015 0  0.04098357371794872 0.015 0  0.003744047619047619 0.00375 0  0.003344630281690141 0.02580853873239437 0  0.04625 0.0187354532243972 0  0.06388392857142858 0.01138392857142858 0  0.06375 0.01375 0  0.05875 0.01375 0  0.06375 0.02 0  0.00622802734375 0.01372802734375 0  0.003630681818181818 0.001369318181818182 0  0.003630681818181818 0.02863068181818182 0  0.06125 0.01625 0  0.06125 0.01125 0  0.05625000000000001 0.01 0  0.05875 0.01125 0  0.06125 0.01375 0  0.08337864763241221 0.0183786476324122 0  0.05213634138653413 0.01674432930673294 0  0.04375000000000001 0.01 0  0.07424178685897437 0.01529258578431373 0  0.03924178685897436 0.01529258578431372 0  0.03410139294454583 0.01843406022904556 0  0.03089860705545417 0.01843406022904556 0  0.02094160484316717 0.01850229584291991 0  0.04375000000000001 0.02 0  0.04437042160883325 0.01820701498672512 0  0.04816311705429156 0.01600061344661149 0  0.07151224904251052 0.0114127410511319 0  0.04395528506193162 0.01639387970349481 0  0.0128750358694518 0.0167500179347259 0  0.02855808448399799 0.01642839899839741 0  0.02812690373330794 0.01340955081400569 0  0.08358500641945087 0.01351822349116885 0  0.05590277777777778 0.01173611111111111 0  0.06683110430364615 0.01164926404662283 0  0.02573206694914602 0.01842532451809762 0  0.01438126661842046 0.01166701193099454 0  0.02384283211216029 0.01526549696571563 0  0.03625 0.02 0  0.004609375000000001 0.0182421875 0  0.003398437500000001 0.01943359375 0  0.001728307845744682 0.01894718251329787 0  0.004377805359085963 0.01656966216675735 0  0.04649673309852075 0.0153889662370871 0  0.03615513600614297 0.01592654988586041 0  0.03316985071935832 0.01598763605018279 0  0.03110111603888768 0.01529816275177977 0  0.01370614113484869 0.0138804542047638 0  0.04930041102671841 0.01842260568883502 0  0.07875000000000001 0.02 0  0.0745395359848485 0.01165101111925709 0  0.03860755698543604 0.01373741558556884 0  0.02605038706571737 0.01573944002207753 0  0.07559826163500957 0.01841729376139847 0  0.04437500000000001 0.01149157931286774 0  0.06874116707361365 0.01454618473032123 0  0.003761917372881356 0.0239307468220339 0  0.003984374999999999 0.01125 0  0.003768503289473684 0.01392539576480263 0  0.001796875 0.0111328125 0  0.003761917372881356 0.008930746822033899 0  0.005 0.00625 0  0.003761917372881355 0.0210692531779661 0  0.06633928571428571 0.01410714285714285 0  0.006484375 0.01125 0  0.08364120589325512 0.01657288979763549 0  0.03576267476503373 0.0184116442851204 0  0.07370875846579374 0.0137848203678562 0  0.06964285714285715 0.01758928571428571 0  0.05520833333333334 0.01833333333333333 0  0.06491071428571429 0.01839285714285714 0  0.0510098951944636 0.01559941474766356 0  0.01786087179886325 0.0115702210443714 0  0.01972197383235524 0.01160576093166696 0  0.01804697593127788 0.01433503795474974 0  0.001644074528704677 0.01642892723865279 0  0.00125 0.03 0  0.001497685185185185 0.001267746913580247 0  0.07315451164202422 0.01643443118912983 0  0.001233906745910645 0.0140625 0  0.01162635071030191 0.01362229857939618 0  0.01528023503083844 0.01845923557506155 0  0.06625 0.02 0  0.07695012019230771 0.01624387078484555 0  0.03139091092855769 0.01320776147621796 0  0.03857339107781042 0.01675295051810485 0  0.001754993120977522 0.02590789105493891 0  0.002288757784711197 0.00412546923654445 0  0.07914382119690884 0.01404430049871201 0  0.001391810103286306 0.01257390899021902 0  0.0419501201923077 0.01614675005432421 0  0.001484375 0.007018229166666667 0  0.001484375 0.02201822916666666 0  0.048
[...]
<PointData  Scalars="concentration"> 
<DataArray  type="Float64"  Name="concentration"  format="ascii">5.5946497424446506e-01  1.0000479356543690e+00  9.9999999999999889e-01  9.9999999999999922e-01  5.0487097934144746e-25  2.5012455274505561e-24  -9.7593433772955054e-05  5.1334199720893425e-01  5.7404188742523699e-01  3.4004587467513331e-05  9.9999574867494123e-01  6.5330901200568636e-01  4.1958323005323339e-01  2.7084919377736066e-01  7.9629459812982750e-01  5.8847363587047052e-01  4.8390984882535815e-01  7.1082201546980295e-01  3.5916283757453210e-01  5.7109113733977468e-01  5.0178217262468416e-01  9.1440868519032803e-01  1.3563794242580360e-01  4.5829223934722002e-01  6.1430738595262324e-01  4.9383062932340260e-01  5.7913792920959362e-01  4.4063030797436470e-01  3.1892068064394569e-01  7.4965792930596542e-01  3.9294183253659665e-01  5.3403209291862000e-02  8.5090269634845828e-01  5.3648795968034424e-01  5.3640742461252422e-01  6.3181765160657855e-01  5.3638240004376947e-01  6.7929486901548952e-01  5.3672548922912033e-01  5.3636718857187160e-01  2.1140055841345998e-01  9.7595912451602740e-01  5.3792511486361561e-01  5.5197166313024493e-01  5.0810828125991570e-01  5.6475828809302242e-01  4.9709678442051825e-01  5.3657637897606325e-01  5.3643077957624430e-01  9.9564398815681937e-10  5.7587099757679616e-01  5.4010465223475157e-01  5.3640823745799193e-01  9.9999999756918456e-01  4.7271555284538869e-01  6.0009462687751336e-01  6.3111859536231552e-01  5.1139461960663346e-01  5.5436800465091829e-01  7.8278994175815542e-01  5.6653199222070194e-01  7.8310432336555621e-08  9.9365466279162185e-01  1.8639732625876707e-02  9.9999997435775667e-01  5.2404620363805043e-01  4.8953701752748546e-01  1.1627470882342884e-01  5.7932503836364491e-01  4.8437972117442385e-01  4.9387928976555295e-01  5.5279299283663652e-01  5.1047121341316715e-01  1.7514032912939012e-01  3.2176590630748403e-01  6.4238183197885035e-01  6.0061968792174281e-01  6.8570100825415758e-02  9.9999999999999856e-01  -7.4204262716993033e-25  9.7703830711140605e-01  3.2081427235020465e-01  5.8993061186194995e-01  7.2946051808689349e-01  6.3333132778314027e-01  6.9455881400965558e-01  6.5286984816908078e-01  7.7345278522675354e-01  6.2260931805298514e-01  9.3282722235656174e-02  4.5753711920619317e-01  3.7782669716189488e-01  8.2432449944622888e-01  6.8353446894387582e-01  5.1728617429348211e-01  4.9794453442946851e-01  5.5548139023909848e-01  5.7483874757287445e-01  6.1544712055828521e-01  2.4350165409352564e-01  3.3967548131477665e-01  6.6590956439831128e-01  4.0636849410419879e-01  5.0465989879375439e-01  5.6787940472625675e-01  4.7711869630382026e-01  5.0914524659171045e-01  4.8578234118870928e-01  9.9999987666881762e-01  9.9999999989703958e-01  8.7803324351002277e-01  7.9330675636027204e-01  3.3770598564238602e-01  4.1240552501492694e-01  1.3108552632674838e-04  5.9697355102146665e-01  5.6637497088554245e-01  -1.1163242977847388e-09  1.9054991988226599e-07  3.4503798397732166e-01  1.0000407516926093e+00  4.0418843091320145e-01  4.5017934562535772e-01  5.1447158536834325e-01  7.4008212848333621e-01  5.5691609773374540e-01  4.6341174283639031e-01  5.7282592544335353e-01  9.5852238915405452e-01  6.0735656081776579e-01  5.8621672179118489e-01  1.0000001540138541e+00  1.5673050042142800e-07  9.9999999966953346e-01  6.5014123530573271e-09  4.3088625509400658e-01  8.8235536969274120e-01  3.4223811357384154e-01  3.8801848592386851e-01  6.3203930005294806e-01  5.1955348703661564e-01  5.1082351386676150e-01  2.9229188749268431e-01  5.8341043143975746e-01  9.4516949306642650e-01  7.1399428344739113e-01  6.5416817435771690e-01  5.5322714760957847e-01  2.9773764424256477e-01  5.6834463005392977e-01  1.6416898647185058e-02  9.9502240826419486e-01  4.9826911818779940e-01  2.1141360111444557e-01  5.3646025289942245e-01  4.8970494626916994e-01  4.6550185252802473e-01  5.9436053201472105e-01  4.7867238723997257e-01  5.6198783244537520e-01  4.4193460642850885e-01  7.5241767986635355e-01  5.0746956017173339e-01  5.1899545387647225e-02  5.1034733784082864e-01  6.8365231450999508e-01  4.7623298072078368e-01  5.3901545685509300e-01  5.2350422338834546e-01  4.5180301236139958e-01  8.3645298719837213e-01  6.1661522366919208e-01  4.8076542659258298e-01  5.6754960559818379e-01  4.0860449763908585e-01  5.6208963534452117e-01  6.1945125204695073e-01  3.5324078597052766e-01  4.9579497947201179e-01  5.0639029853593653e-01  1.9287124652284826e-01  5.7596357121768282e-01  5.5316332141174074e-01  5.4641643608562118e-01  5.3566676641559507e-01  5.9851219429890101e-01  7.0058733576816046e-01  9.6094148664697654e-01  6.6052989674737772e-01  5.1613364128220129e-01  5.5070425503114917e-01  5.3452377194739886e-01  9.0919358088432867e-01  1.7112141489616109e-01  5.2957069792634648e-01  5.7464541328970908e-01  5.1872219034849076e-01  8.3876889883630723e-01  4.3684029279170467e-01  5.1203362645032546e-01  5.1510603468291505e-01  5.3734528538650461e-01  3.3305631677643910e-01  6.6887955549918232e-01  1.0184383998806777e-01  9.8692210745234960e-02  5.3409161512228875e-01  7.4444841257054872e-01  1.0000007145158276e+00  5.6761583979382702e-01  -1.7171490868354110e-06  1.9043241632470778e-08  1.4202673335527747e-06  7.9081735606902797e-04  9.9979361100215036e-01  9.9999972905510959e-01  9.9999999542648899e-01  5.9005249371457569e-01  4.5337346641629128e-01  9.1137631798533469e-01  4.5248397138063096e-01  4.0805205217020768e-01  6.6223184757474951e-01  7.8248138991027083e-01  5.6158206764610041e-01  4.6022256512129156e-01  3.2739631004864184e-01  5.3641161733091136e-01  5.3664093461913587e-01  1.5440430223449828e-09  9.9999999922346272e-01  6.4175764193243634e-01  4.8583862530672167e-01  5.1432852734080681e-01  5.0943975817549292e-01  5.9111642891023197e-01  2.8547111471942982e-01  2.6297565306735494e-10  9.9999999993975341e-01  5.6084281105728506e-01  4.7897865250120242e-01  4.6233159580669014e-01  4.7294367707844759e-01  5.1214969935773058e-01  5.5830404858795701e-01  5.8438353007366095e-01  4.1310121244994308e-01  5.3991936042156596e-01  5.5075669562888729e-01  7.0106755834006484e-01  7.2293025194608806e-01  8.1611071922264100e-01  6.5909159931181005e-01  6.4086254678486976e-01  5.6987884081848161e-01  4.9932741688383592e-01  5.9121812711973121e-01  7.8462618377936011e-01  6.4131945025419934e-01  4.2101378527013744e-01  5.2521525978841122e-01  4.6991563446680445e-01  4.9326213937841629e-01  7.6423018149459410e-01  1.7171326537227560e-01  5.6319811961178012e-01  7.0349476456269489e-01  9.9531958360427542e-01  9.9989198115923583e-01  9.9845841798099633e-01  8.8968146437319984e-01  5.5087830952603467e-01  5.8743793738863836e-01  5.9784100682127239e-01  5.5781941553676839e-01  3.8981449372441779e-01  6.2490771095286146e-01  5.6635123603990745e-01  5.0472778170366650e-01  4.7510285794778567e-01  5.9947144651869966e-01  5.6703133143009798e-01  4.2664089857258269e-01  5.2979427271169310e-01  1.0000000092732666e+00  5.5233332544976357e-03  3.0099670804010026e-01  7.2017975895946485e-03  2.2538250034078096e-06  6.5404166638778356e-09  9.9999201704043417e-01  5.2206420407643361e-01  1.8147880247385929e-02  5.4816729149409782e-01  6.8990323393856701e-01  5.2205562417700091e-01  5.6912685930440354e-01  6.0564149476030671e-01  5.8342302744017682e-01  5.5467360962207157e-01  2.1577824178021693e-01  2.3964817055891419e-01  4.6647650967522236e-01  8.7148967484236062e-01  9.9999999999999944e-01  -3.0090225053106857e-10  5.5359619558749551e-01  3.3690213321508683e-01  3.3757864021126749e-01  8.8334196778516183e-01  5.8607067953711511e-01  5.4943906448661950e-01  4.2259696253236845e-01  6.1996039878368558e-01  1.0000000150782631e+00  -2.9723399339423346e-08  5.2728958997404751e-01  7.7750332729388694e-02  5.8611259593261711e-01  -7.6837260244537888e-07  9.9999309388552438e-01  4.8729418356438320e-01  4.4846108181972633e-01  7.3137232774401428e-01  5.0590509801722383e-01  4.7350027427811997e-01  7.3757705575922028e-01  4.9127070069619377e-01  6.3251006213993721e-01  4.8721766050147758e-01  5.0727018860777073e-01  4.1024106039459068e-01  6.3414499368256394e-01  4.1927406415940949e-01  3.6978091946497238e-01  3.0038152928384965e-01  2.5613962511894417e-01  2.8223024834221644e-01  2.7320335451304650e-01  5.0877017339010744e-01  5.2302494155487611e-01  5.0777018236584526e-01  1.0000012691826476e+00  -2.4827640063206796e-08  2.0849066442514749e-06  3.3614461566790799e-01  1.0000000003917116e+00  4.4151604914280906e-01  4.3341897038926191e-01  5.7571216317233531e-01  5.6384640460638524e-01  5.8210664433623227e-01  5.8225715227412078e-01  5.7299974355369965e-01  8.8499161710625152e-01  3.7626156931584603e-01  3.6981617131944772e-01  3.8686632533261861e-01  9.1906732547281267e-01  9.9908496188699791e-01  5.6651838507999464e-01  5.5703740888928388e-01  6.0188431814771348e-01  6.1531572520535827e-01  4.7759152234859026e-01  9.5969813583134955e-01  5.8974772046584789e-01  9.5592511039887895e-01  9.2432973053964107e-01  9.8949501159338382e-01  5.4993399609770499e-01  5.7736834518204594e-01  5.4254967608077898e-01  5.2209606359594796e-01  2.2430564756275886e-01  4.9732317640144613e-01  5.1788886227150377e-01  5.5597908108441707e-01  5.6410487042388191e-01  5.4618660579436729e-01  1.6544406461028472e-08  6.1884421948630230e-01  5.1673228725116294e-01  5.0657645526974648e-01  5.0986548106775076e-01  8.9883006029932655e-01  4.3612914466556341e-01  9.7875793323337945e-01  6.2600508428439550e-01  5.5354607613531870e-01  8.3989016677819350e-01  3.3741457743754956e-02  4.0188788210733642e-02  6.7849863275841171e-01  1.9303353970906087e-01  3.7397458977525172e-01  6.1061112917044558e-01  5.4783398946304851e-01  5.8117984292621994e-01  5.9695750042062379e-01  4.4307270702470941e-01  5.9218978396040811e-01  1.7920046586787611e-01  4.3727229150245350e-01  9.9999999936542050e-01  -2.1642996485163597e-09  9.9999999993310273e-01  5.0002874405426911e-01  4.3866702905284216e-01  4.7819633202161416e-01  4.4113195394505044e-04  5.8532514961033111e-01  6.5666559128992819e-01  2.2534920231041189e-01  8.4285869126660884e-01  5.1475399611965089e-01  5.1243024311454966e-01  5.9178125385691327e-01  5.9762191339644755e-01  5.7294250183054596e-01  3.8556101765126471e-01  5.7838405311960595e-01  4.2068313295471627e-01  3.5711211629463224e-01  3.5169116757132007e-01  3.2805904082125775e-01  6.0317504993137372e-01  5.0846997913319170e-01  3.0658620232770123e-01  4.1566588618713313e-01  6.9037754207623792e-01  6.0101774339884617e-01  6.5962852547701167e-01  5.0100152650734753e-01  1.2244804395668450e-01  6.3331385145791386e-01  6.9241679851424875e-01  7.5975875946936355e-01  6.4774764612185531e-01  7.1269901843129735e-01  4.8742433336506658e-01  5.1557008079475020e-01  5.0453908381032753e-01  1.4687668172595834e-03  5.7195214901937563e-01  2.5365218374776227e-01  7.4669828190406173e-01  8.0591431807160674e-01  5.7684413400920187e-01  5.6934221430254306e-01  6.3680830120104404e-01  7.8466798465153920e-01  4.9554947837561525e-01  7.1974135223343949e-01  5.5974751477168483e-01  4.8693379694880845e-01  4.8165109163435871e-01  4.5415871117051537e-01  5.6332803221694561e-01  8.0927214643522394e-01  4.4461811971770515e-01  3.9917823127708330e-01  6.8672575970977634e-01  5.0948368018756740e-01  5.0337619423199675e-01  4.9173180898472890e-01  6.2712360702250580e-01  6.7379576577204248e-01  9.9999997239314420e-01  5.4554677461223122e-01  4.6945327170778062e-01  4.8169418010269627e-01  9.3221233827021455e-01  7.0309758912324896e-02  9.8604955305979203e-01  1.5535421328289120e-01  1.0281748823540363e-05  1.1477408533218113e-01  -3.4042668947252292e-24  -1.5404465157356182e-09  -4.7538741819202930e-10  1.0000000000000007e+00  -4.8216673289589589e-24  3.6456490293303415e-03  9.9652174099261470e-01  9.9998004300676113e-01  5.2719568454882115e-01  8.3727765466827531e-01  5.1313657752576647e-01  1.0000000001556792e+00  7.6047170944118581e-01  3.0996439739532644e-01  8.6610102088695806e-01  3.3166592604231232e-01  9.9999999992381949e-01  5.5809699209136820e-01  7.4064960297565618e-01  6.1360498165163968e-01  5.3632994771660214e-01  5.1061377646550832e-01  4.8710129011344705e-01  4.7631032240250126e-01  4.6890545118018923e-01  4.9164850262808485e-01  4.7533339302830613e-01  6.4822146683159365e-01  4.2512278783646484e-01  6.0400332981915872e-01  5.6041696004841102e-01  4.3923094522150630e-01  5.5522775799209889e-01  6.3552033990996915e-01  6.2861842207726493e-01  5.0829945318433667e-01  2.2207856837906151e-01  2.7342051236538084e-01  4.8933788128739869e-01  5.2772437242703840e-01  5.7054123659939371e-01  5.2002757415130041e-01  4.4939957531666008e-01  5.0984003437180725e-01  5.4182729548732500e-01  9.9890068442286162e-01  6.4873767122356352e-01  7.2411094187479996e-01  6.6506789034257929e-01  5.6566105726949889e-01  1.5671268009854282e-07  5.6759924441089538e-01  -3.5264538370059409e-09  1.0000818656885988e+00  6.9705479719834595e-01  5.4136590527461637e-01  5.2061863264397590e-01  4.6147370087782807e-01  4.9756221493700808e-01  5.2585439676875767e-01  8.1858083652584734e-01  5.9547323214996228e-01  6.0766274160729528e-01  9.9999978403239542e-01  2.5256572178043357e-01  5.1131569988013614e-01  5.2797175619571368e-01  4.9938191729691200e-01  5.3989892417019491e-03  8.0970078876352686e-02  4.6983406712107323e-02  6.0783320044354117e-01  5.7442810711557157e-01  5.2843139574239129e-01  6.7930900731032318e-01  5.9433884795874203e-01  5.7993721965650435e-01  5.9135356625685165e-01  2.4340014637906807e-01  5.6424601731338497e-01  8.6874616236365021e-01  4.7669968704441934e-01  4.3616566035245868e-01  7.4960630001350137e-01  5.1938645721777521e-01  4.6972487210666047e-01  6.2152196418138195e-01  6.8701947815621434e-01  1.9199153333179605e-01  5.4936082036334988e-01  5.5788141140198266e-01  5.3316279385415299e-01  6.4050109141941791e-01  4.1178048804278644e-01  4.5326698874271154e-01  9.9999999948684615e-01  5.4261098973448751e-01  5.6540145209315629e-01  4.3416630268169859e-01  5.3521155435342094e-01  3.6031483751348853e-01  4.8445995498764516e-07  4.3781372480205732e-01  4.6013140773922007e-01  3.0010673191298792e-01  7.2992060165902783e-01  8.8483274748466711e-01  5.5882134073635681e-01  6.6345620518505588e-01  5.2965573594868476e-01  4.2525056038739473e-01  5.0441085138354291e-01  -9.4951786437302785e-11  3.8570584097300997e-01  5.7277526042218407e-01  4.0492337656455923e-01  5.2074574636085968e-01  6.1429875092608199e-01  2.7370752055310515e-01  -7.3222860650167342e-05  5.4579991535436956e-01  5.3343166166803513e-01  6.2750139769150060e-01  5.6380477411206331e-01  4.8248242677441333e-01  4.7796515916009252e-01  3.9216763258833004e-01  5.4215041867645564e-01  5.2508042388347309e-01  8.4838109197077405e-01  2.0856811385784959e-07  -3.4375310979645987e-05  1.0000001974382262e+00  3.9296613495703020e-01  5.8602704669552286e-01  9.4898840772509518e-01  9.7423220067640881e-01  9.8766949418747829e-01  9.0206073105485063e-01  5.5222540257011954e-01  5.2487711899636480e-01  5.7140382898286624e-01  4.6494463190338975e-01  5.0613466844258392e-01  3.8347656417697434e-01  5.3069879511946938e-01  6.2303578335821375e-01  6.5336214792626013e-01  6.7408507746368196e-01  -1.5454431767517586e-09  8.1848990619156325e-01  9.9999999965478004e-01  5.3647728147330420e-01  5.1514772809336984e-01  7.1497614246082231e-01  4.8382426302475645e-01  4.5816858146234724e-01  8.5353717223397474e-01  9.9997262665190079e-01  1.2009490933985123e-02  7.2047115317610277e-01  -2.3824947025765130e-08  3.6793539680762960e-01  3.3035564985401095e-01  1.0000024363103248e+00  9.9999818254207140e-01  -8.1811404583055802e-07  6.3101161571780984e-01  6.4842829091944010e-01  8.0941034615189467e-01  4.9438705139040551e-01  5.7924689968774901e-01  9.9999993712998392e-01  -8.2304034364421336e-06  3.7405646281584259e-01  5.1141097287716132e-02  9.8649940805597702e-01  9.9744898682107075e-01  5.0767617108155427e-01  5.0639906502374010e-01  5.9724827768970790e-01  5.1715658681480792e-01  5.0925932761103698e-01  5.1062098588173033e-01  5.3120070327207192e-01  4.9637086611194248e-01  5.6531089602049100e-01  4.4468002136333429e-01  5.0202945645190233e-01  4.9139519935058890e-01  7.7667523713830122e-01  5.6007662744487785e-01  6.8465794173384409e-01  5.6565921974495803e-01  5.1721453943994955e-01  5.0472696248071225e-01  5.0319789995591446e-01  5.0906038744628523e-01  5.1255861609553499e-01  1.7105487024404056e-01  2.1646071793945817e-01  1.5208760904835847e-01  6.5663671610697971e-01  5.8882613402091144e-01  5.7609423073471933e-01  5.6698517901476408e-01  7.4082183941365687e-01  5.8123631993544622e-01  5.5261542120713580e-01  6.0732786932138871e-01  5.7469909957871534e-01  5.6652878722983591e-01  5.4566930787779289e-01  8.6985612769589238e-01  8.0490072857362294e-01  5.2705255787182159e-01  6.6273859980891903e-01  5.6046010777977340e-01  5.4167046122979179e-01  5.7087721403927871e-01  5.9223158550146593e-01  5.6756457880981714e-01  5.8638040851051354e-01  5.8282714378298384e-01  5.3910223064530005e-01  5.9750140925232276e-01  5.3682885235896194e-01  5.4132733211203476e-01  4.5294619427336208e-01  6.1125076336167927e-01  5.4688276514986234e-01  1.2973414239593512e-09  5.6603086883929943e-01  5.8727571206027607e-01  6.8879429265683592e-02  4.9089179822874207e-01  8.2462456261462680e-01  7.8461536988508129e-01  6.7615329303252569e-01  1.0707344299699208e-01  1.3416064748258363e-01  5.6178629721835582e-01  4.9338430225881769e-01  7.3278173413523162e-01  7.4512387979516159e-01  3.4051647809661112e-01  5.1385986905813641e-01  5.1205266219159884e-01  5.1652606281379576e-01  4.3934811084364450e-01  9.3337219532980986e-01  5.2963791883675670e-01  4.9602861497437722e-01  5.8294374074296684e-01  5.4770514822987826e-01  4.7802029709589239e-01  4.9595094661669953e-01  3.9824334270858452e-01  4.3198426454227701e-01  5.1355566787534535e-01  3.5974408730416063e-01  3.0799350240385837e-01  3.4448644582959814e-01  9.9999999925333538e-01  2.5280711094559510e-02  4.6160946865434033e-01  4.6502919712474056e-01  5.1358433231372336e-01  2.5965558950031092e-01  5.9501164876931423e-01  4.7678400855243036e-01  5.6136043635688015e-01  2.1681302206930550e-08  2.2299966726677736e-01  4.8800359105144342e-01  5.5491156397136876e-01  7.5099822597841164e-06  6.3861947299324473e-01  6.5498342642464380e-01  6.1559556913838109e-01  1.9623883050026603e-01  9.0917654140336701e-02  9.9999976769104049e-01  5.0360508852872043e-01  8.7121024341840558e-01  7.5224633111634787e-01  6.3581589830709095e-01  5.3971342115009180e-01  5.9994184935934747e-01  5.4941729457362420e-01  2.0745894314087157e-01  9.9997122402230321e-01  9.9999970109871450e-01  4.2666052523221377e-03  5.3068211895224349e-01  3.2430197102609874e-07  1.6286349202764133e-04  6.5777793463478049e-02  3.5386710422418344e-01  9.9999999064204426e-01  9.7459451269391983e-01  9.9999989477960260e-01  4.5546837403289292e-01  5.0079253671827839e-01  8.7106302354474341e-01  4.9913619042635271e-01  1.0000000059816165e+00  2.3048828679927358e-01  2.7983351421097175e-01  6.4865125320603201e-01  2.5448560445243118e-01  7.6987067894782946e-01  7.9942306814296182e-01  5.4602606463941594e-01  5.2031197249667382e-01  2.5206295662875822e-01  5.5385982641850917e-01  5.5445359804116345e-01  5.6104415681467912e-01  6.3489158777238597e-01  5.9546663257349952e-01  9.9999999942500706e-01  4.4768111578911413e-01  4.1599418505138375e-01  5.6695175693713784e-01  9.1235789110672860e-01  9.3436709605426294e-01  5.6037619659389293e-01  5.0141541783027632e-01  -1.2087204522319695e-09  3.9365055163925528e-01  5.8887898531676108e-01  4.5227470996299868e-01  4.5095603402502155e-01  4.6226975779330959e-01  5.3578885941266408e-01  4.9409704250718456e-01  4.1932300046000581e-01  4.0529506003065269e-01  4.3938111780949168e-01  5.6367363794162029e-01  3.1710633398626004e-01  8.1750648594852082e-01  3.6585806627621736e-01  7.4196056514140507e-01  7.1301724635852337e-01  7.0035240504580387e-01  1.0005440678798567e+00  9.9486307948408881e-01  1.0361017233740191e-03  6.1