<?xml version="1.0"?>
<VTKFile type="UnstructuredGrid"  version="0.1"  >
<UnstructuredGrid>
<Piece  NumberOfPoints="1079" NumberOfCells="1944">
<Points>
<DataArray  type="Float64"  NumberOfComponents="3"  format="ascii">0.08500000000000001 0.02 0  0.005 0.02 0  0.005 0.03 0  0 0.03 0  0 0 0  0.005 0 0  0.005 0.01 0  0.08500000000000001 0.01 0  0 0.015 0  0 0.0075 0  0 0.0225 0  0.04500000000000001 0.02 0  0.04500000000000001 0.01 0  0.025 0.01 0  0.025 0.02 0  0.065 0.02 0  0.065 0.01 0  0.035 0.02 0  0.035 0.01 0  0.07500000000000001 0.02 0  0.07500000000000001 0.01 0  0.015 0.02 0  0.015 0.01 0  0.05500000000000001 0.01 0  0.05500000000000001 0.02 0  0.07000000000000001 0.01 0  0.07000000000000001 0.02 0  0.05 0.01 0  0.03 0.01 0  0.03 0.02 0  0.04000000000000001 0.01 0  0.01 0.01 0  0.02 0.02 0  0.06 0.015 0  0.08500000000000001 0.015 0  0.05 0.02 0  0.07250000000000001 0.015 0  0.04000000000000001 0.02 0  0.03750000000000001 0.015 0  0.0525 0.015 0  0.02 0.01 0  0.01 0.02 0  0.0275 0.015 0  0.0125 0.015 0  0.08000000000000002 0.01 0  0.08000000000000002 0.02 0  0.0325 0.014375 0  0.04291666666666667 0.015 0  0.065 0.015 0  0.005 0.005 0  0.005 0.015 0  0.02208333333333334 0.015 0  0.07791666666666668 0.015 0  0.005 0.025 0  0.06 0.01 0  0.06 0.02 0  0.01729166666666667 0.01572916666666667 0  0.04770833333333334 0.01427083333333334 0  0.06875000000000001 0.01625 0  0.008750000000000001 0.01625 0  0.05625000000000001 0.01625 0  0 0.00375 0  0 0.01875 0  0 0.01125 0  0 0.02625 0  0.08145833333333334 0.01354166666666667 0  0.0675 0.01 0  0.0075 0.0125 0  0.0625 0.0175 0  0.0575 0.0125 0  0.0625 0.0125 0  0.08207465277777778 0.01707465277777778 0  0.06767857142857144 0.01321428571428571 0  0.0175 0.01 0  0.01875 0.01291382575757576 0  0.0475 0.02 0  0.04564168086314595 0.01679860519591141 0  0.00296875 0.0125 0  0.0025 0.03 0  0.0025 0 0  0.00296875 0.0175 0  0.01521990740740741 0.0132349537037037 0  0.0497800925925926 0.0167650462962963 0  0.0325 0.02 0  0.03474264705882353 0.01674632352941176 0  0.03750000000000001 0.02 0  0.03025735294117647 0.01674632352941176 0  0.0275 0.02 0  0.0525 0.02 0  0.0125 0.01 0  0.04020833333333334 0.01322916666666667 0  0.03750000000000001 0.01 0  0.0225 0.02 0  0.02479166666666667 0.01677083333333333 0  0.07520833333333335 0.01322916666666667 0  0.07250000000000001 0.01 0  0.07520833333333335 0.01677083333333334 0  0.07250000000000001 0.02 0  0.04020833333333334 0.01677083333333333 0  0.0225 0.01 0  0.02375 0.01262152777777778 0  0.04250000000000001 0.02 0  0.04250000000000001 0.01 0  0.07750000000000001 0.01 0  0.07750000000000001 0.02 0  0.05036151960784314 0.01294424019607843 0  0.0705560064935065 0.01284699675324675 0  0.05458333333333334 0.01291666666666666 0  0.0021875 0.024375 0  0.005 0.0275 0  0.01125 0.0175 0  0.01463848039215686 0.01705575980392157 0  0.01 0.01375 0  0.03625 0.0125 0  0.0021875 0.009375 0  0.05375000000000001 0.0175 0  0.07125000000000001 0.0175 0  0.005 0.0025 0  0.0021875 0.005625 0  0.02655220103578155 0.01234889948210923 0  0.002187499999999999 0.020625 0  0.02979166666666667 0.01302083333333333 0  0.0525 0.01 0  0.07895833333333334 0.0125 0  0.01994277885235332 0.01704213007736944 0  0.07934656179076068 0.01733823814273861 0  0.04505722114764669 0.01295786992263056 0  0.06625 0.0175 0  0.006250000000000001 0.0175 0  0.05750000000000001 0.02 0  0.05875000000000001 0.0175 0  0.005 0.0225 0  0.005 0.0075 0  0.002375 0.027375 0  0.002375 0.002625000000000001 0  0.0475 0.01 0  0.0175 0.02 0  0.0325 0.01 0  0.03375 0.0121875 0  0.04261299435028249 0.01749205508474576 0  0.08500000000000001 0.0125 0  0.08250000000000002 0.01 0  0.02121963399965531 0.01224824108143494 0  0.0675 0.02 0  0.0125 0.02 0  0.02720152243589744 0.0175 0  0.03715165441176471 0.0175 0  0.08500000000000001 0.0175 0  0.0275 0.01 0  0.0025 0.0149560546875 0  0.0075 0.01 0  0.0075 0.02 0  0.06526785714285716 0.0125 0  0.01281031447005516 0.0125 0  0.0625 0.015 0  0.06 0.0125 0  0.05750000000000001 0.01 0  0.0625 0.02 0  0.0625 0.01 0  0.08250000000000002 0.02 0  0.04260103740101855 0.01252623201412851 0  0.02240052247582197 0.01750164767101344 0  0.07293583459427785 0.01238479732953041 0  0.005234374999999999 0.012265625 0  0.03528131980640358 0.01454684009679821 0  0.0325 0.01760027210036557 0  0.02532593822924343 0.01428227733767297 0  0.08009952069819683 0.01527145502895417 0  0.01987282359856536 0.01482587683689801 0  0.04828232595121382 0.01210233572595705 0  0.01671767404878618 0.01789766427404295 0  0.05125 0.01829007549029352 0  0.05247215456215357 0.01288882122882024 0  0.07338729919678716 0.01799385040160642 0  0.03838729919678716 0.01200614959839357 0  0.07717482110586968 0.01780301674207099 0  0.04771860040890012 0.01773306039388322 0  0.03125 0.01160380747126437 0  0.06875000000000001 0.01154265873015873 0  0.07625000000000001 0.01154065860215054 0  0.01625 0.01153997817696946 0  0.068125 0.018125 0  0.05437500000000001 0.015625 0  0.066875 0.015625 0  0.07039794950204951 0.01494384850614853 0  0.05687500000000001 0.018125 0  0.006875 0.015625 0  0.008749999999999999 0.01833333333333333 0  0.010625 0.015625 0  0.05625 0.01416666666666667 0  0.05812500000000001 0.015625 0  0.0449088595298192 0.01494528408816316 0  0 0.016875 0  0 0.013125 0  0.04962452342047931 0.01478673066448802 0  0.0153754765795207 0.01521326933551198 0  0.0771774565913315 0.01322498191305479 0  0.01857756431135545 0.01840228599899994 0  0.04642243568864456 0.01159771400100006 0  0.08125000000000002 0.01155637254901961 0  0.08317650804863432 0.0118234919513657 0  0.08288217288011697 0.01511353252923977 0  0.02837253504384828 0.0117177464035174 0  0.03896057962520807 0.01831163685754031 0  0.01125 0.0114244162490927 0  0.00935910490099115 0.0119067901980177 0  0.02946078431372549 0.01495404411764706 0  0.02875 0.0185829434466942 0  0.002968749999999999 0.0225 0  0.064375 0.016875 0  0.00296875 0.0075 0  0 0.001875 0  0 0.005625 0  0 0.009375 0  0 0.020625 0  0 0.024375 0  0 0.028125 0  0.06062500000000001 0.01812500000000001 0  0.008303571428571429 0.01446428571428572 0  0.01375 0.01865917058160413 0  0.05137790313978056 0.01143372888932909 0  0.04125000000000001 0.01131513063942604 0  0.04101690263896279 0.01844430285842771 0  0.02399563533148224 0.01844349395710867 0  0.08125000000000002 0.01868815426145731 0  0.05354684380692146 0.01145463537600848 0  0.01699195823639423 0.01315138909884649 0  0.07598357371794873 0.015 0  0.04098357371794872 0.015 0  0.003744047619047619 0.00375 0  0.003344630281690141 0.02580853873239437 0  0.04625 0.0187354532243972 0  0.06388392857142858 0.01138392857142858 0  0.06375 0.01375 0  0.05875 0.01375 0  0.06375 0.02 0  0.00622802734375 0.01372802734375 0  0.003630681818181818 0.001369318181818182 0  0.003630681818181818 0.02863068181818182 0  0.06125 0.01625 0  0.06125 0.01125 0  0.05625000000000001 0.01 0  0.05875 0.01125 0  0.06125 0.01375 0  0.08337864763241221 0.0183786476324122 0  0.05213634138653413 0.01674432930673294 0  0.04375000000000001 0.01 0  0.07424178685897437 0.01529258578431373 0  0.03924178685897436 0.01529258578431372 0  0.03410139294454583 0.01843406022904556 0  0.03089860705545417 0.01843406022904556 0  0.02094160484316717 0.01850229584291991 0  0.04375000000000001 0.02 0  0.04437042160883325 0.01820701498672512 0  0.04816311705429156 0.01600061344661149 0  0.07151224904251052 0.0114127410511319 0  0.04395528506193162 0.01639387970349481 0  0.0128750358694518 0.0167500179347259 0  0.02855808448399799 0.01642839899839741 0  0.02812690373330794 0.01340955081400569 0  0.08358500641945087 0.01351822349116885 0  0.05590277777777778 0.01173611111111111 0  0.06683110430364615 0.01164926404662283 0  0.02573206694914602 0.01842532451809762 0  0.01438126661842046 0.01166701193099454 0  0.02384283211216029 0.01526549696571563 0  0.03625 0.02 0  0.004609375000000001 0.0182421875 0  0.003398437500000001 0.01943359375 0  0.001728307845744682 0.01894718251329787 0  0.004377805359085963 0.01656966216675735 0  0.04649673309852075 0.0153889662370871 0  0.03615513600614297 0.01592654988586041 0  0.03316985071935832 0.01598763605018279 0  0.03110111603888768 0.01529816275177977 0  0.01370614113484869 0.0138804542047638 0  0.04930041102671841 0.01842260568883502 0  0.07875000000000001 0.02 0  0.0745395359848485 0.01165101111925709 0  0.03860755698543604 0.01373741558556884 0  0.02605038706571737 0.01573944002207753 0  0.07559826163500957 0.01841729376139847 0  0.04437500000000001 0.01149157931286774 0  0.06874116707361365 0.01454618473032123 0  0.003761917372881356 0.0239307468220339 0  0.003984374999999999 0.01125 0  0.003768503289473684 0.01392539576480263 0  0.001796875 0.0111328125 0  0.003761917372881356 0.008930746822033899 0  0.005 0.00625 0  0.003761917372881355 0.0210692531779661 0  0.06633928571428571 0.01410714285714285 0  0.006484375 0.01125 0  0.08364120589325512 0.01657288979763549 0  0.03576267476503373 0.0184116442851204 0  0.07370875846579374 0.0137848203678562 0  0.06964285714285715 0.01758928571428571 0  0.05520833333333334 0.01833333333333333 0  0.06491071428571429 0.01839285714285714 0  0.0510098951944636 0.01559941474766356 0  0.01786087179886325 0.0115702210443714 0  0.01972197383235524 0.01160576093166696 0  0.01804697593127788 0.01433503795474974 0  0.001644074528704677 0.01642892723865279 0  0.00125 0.03 0  0.001497685185185185 0.001267746913580247 0  0.07315451164202422 0.01643443118912983 0  0.001233906745910645 0.0140625 0  0.01162635071030191 0.01362229857939618 0  0.01528023503083844 0.01845923557506155 0  0.06625 0.02 0  0.07695012019230771 0.01624387078484555 0  0.03139091092855769 0.01320776147621796 0  0.03857339107781042 0.01675295051810485 0  0.001754993120977522 0.02590789105493891 0  0.002288757784711197 0.00412546923654445 0  0.07914382119690884 0.01404430049871201 0  0.001391810103286306 0.01257390899021902 0  0.0419501201923077 0.01614675005432421 0  0.001484375 0.007018229166666667 0  0.001484375 0.02201822916666666 0  0.048
[...]
<PointData  Scalars="concentration"> 
<DataArray  type="Float64"  Name="concentration"  format="ascii">9.1526560990519157e-01  1.0044434920359853e+00  9.9999999999999867e-01  9.9999999999999922e-01  1.6802106192483371e-21  -1.2141707124092700e-21  -5.7997598990885517e-03  1.3398939118540679e-01  6.6729460141290053e-01  -6.8091267386964172e-04  9.9842539201021152e-01  9.9221538482589178e-01  2.3257913311742887e-02  -1.3568781365965370e-03  9.9894954730518271e-01  9.6042925406608104e-01  6.7127394068876856e-02  9.9850293126917944e-01  3.8304680860132222e-03  9.4287177274457712e-01  9.8398298321680552e-02  9.9967043938915223e-01  -1.4750652227070737e-03  4.8077429029254284e-02  9.7842122349044702e-01  8.9825332239092837e-02  9.5686944914674399e-01  4.0478095236183141e-02  -2.6087940826175398e-03  1.0003281894537770e+00  1.6457727597778901e-02  -9.7036981308454577e-04  1.0004449764519536e+00  5.5861843475419892e-01  5.4627489245974681e-01  9.8524997998741060e-01  5.4781351998781702e-01  9.9688096543259419e-01  5.7149871339339198e-01  5.5808143181213876e-01  4.9544248310851406e-03  1.0004234353319041e+00  5.8553034544568250e-01  6.2459878830404802e-01  1.1225238687839842e-01  9.3202276405635909e-01  4.2984959302736397e-01  5.6390267849124076e-01  5.5145753930391794e-01  1.3810868535261246e-04  7.2588909715649708e-01  5.9954640607584742e-01  5.4771789987041308e-01  9.9997890145946766e-01  6.5161501675290001e-02  9.7070119486297268e-01  8.1098831794169013e-01  4.2560433144493381e-01  7.2612214422821963e-01  1.0200128536822048e+00  7.5401738840988475e-01  -3.8661919505847019e-06  1.0014913801015040e+00  -7.5634575142571889e-03  1.0001437471967447e+00  3.4774036938754621e-01  7.8501591231797480e-02  -1.9621144720354193e-02  8.7724438596798537e-01  1.7665549908863934e-01  1.9036986216875920e-01  7.9777321770072529e-01  2.8709780342972968e-01  5.0433680690444114e-04  8.2992089736981092e-02  9.8941844138540713e-01  8.4635961340552590e-01  1.8573545363568072e-02  9.9999999999999878e-01  1.7726330909473253e-22  9.8988699070822783e-01  8.8557281096414420e-02  8.3168095147789367e-01  1.0002529264179603e+00  8.7501861794640667e-01  9.9589974509033896e-01  8.9819162853916146e-01  1.0035141311844615e+00  9.7972593176184963e-01  1.3023165776292125e-03  2.2794718615552936e-01  1.1905059130726802e-02  1.0015016377238051e+00  9.2186365435945805e-01  2.9861221898449908e-01  8.5931962662491437e-02  7.7781816370346302e-01  9.4849763909788187e-01  8.6460075297383832e-01  -4.0635172526424807e-03  6.5408784917901724e-02  9.9775356538406090e-01  1.4815776167499253e-02  9.5520471882190996e-02  9.4358049212411865e-01  2.1775305965100741e-01  2.4407215568288090e-01  2.2066534515584535e-01  1.0008665836100497e+00  9.9998962274707015e-01  1.0048256130852422e+00  9.9119926536232617e-01  1.3356852369349465e-01  1.1032567762467149e-01  1.3825620897720274e-03  8.9608446543052256e-01  8.6112290138298719e-01  6.5715089977082510e-05  -6.0011002823653094e-05  5.3584542458710117e-02  9.9671599230726293e-01  1.5768556956220828e-01  4.2887166567027186e-02  2.2176615335218680e-01  9.8011665209549415e-01  8.2969549325007319e-01  2.0393581760981508e-01  8.6895023441183827e-01  9.7756765866516171e-01  9.7525624897864316e-01  8.8662162211463924e-01  1.0000169155731884e+00  4.4047876591985381e-04  1.0001320704485346e+00  5.1850315903371021e-06  3.2199011079987294e-02  9.9600810579551069e-01  -1.2905264979051997e-03  7.1621142208375704e-02  9.2941817820665962e-01  2.4426714933244675e-01  1.1700321742158259e-01  1.7839524430547954e-02  9.5656119990869215e-01  9.9910254372928586e-01  9.7488138940483160e-01  9.3384329810967426e-01  8.2380922591518169e-01  -2.1479435315959420e-03  6.7364537889066656e-01  -5.0367858717959707e-04  1.0023216137142201e+00  1.9484146915580203e-01  -7.4387850152123991e-04  5.5112454191188864e-01  1.9029386875785331e-01  5.3815516210610724e-02  9.6834388638147439e-01  6.3168182262001465e-02  9.3180751655217464e-01  1.4127906614679295e-01  9.9213220551743142e-01  1.9781785829384554e-01  -7.7388085469280374e-03  4.7293015499108609e-01  9.6072471807757098e-01  3.9611396515076724e-01  5.8518808648981890e-01  5.5049580370204443e-01  1.0910801976342271e-01  1.0039060071985313e+00  9.5200644848918570e-01  2.1358882194734402e-01  8.9259779606592038e-01  8.2280991578706955e-02  8.7372455147537309e-01  9.2773279781825779e-01  3.1468707921538365e-02  1.2302688173840953e-01  1.4054832806706255e-01  -3.7335845479180381e-03  9.0737636499673857e-01  6.6466965516379373e-01  6.4785705264723747e-01  5.4199705821158140e-01  9.3056739950947409e-01  9.0562564689193203e-01  1.0029443310244541e+00  8.5828167822848944e-01  4.1447789184685524e-01  6.6103840699219207e-01  5.5359426520203736e-01  1.0029206951054173e+00  -1.6369331905684366e-03  5.2150380301683541e-01  6.8977466332448056e-01  2.9982880456383781e-01  9.9590740956791468e-01  6.9296630591922898e-02  1.5626338737264545e-01  1.8025169977546093e-01  5.6186338040887096e-01  2.0632330203759212e-02  9.7531675278877605e-01  1.6912161740027642e-03  5.3720495844577837e-03  5.7184366327309732e-01  9.9885503172455758e-01  1.0006669022957304e+00  8.1139420919837812e-01  -6.7389625272977078e-06  -1.7438023833925733e-05  2.9936748861636843e-04  -1.4681393702677186e-03  9.9568968310789119e-01  9.9963542722437537e-01  1.0000667163732129e+00  9.2581080286165363e-01  3.5951826099783868e-01  9.9863018880816468e-01  7.1174156358286625e-02  3.7567686691400315e-02  9.8077479365870801e-01  1.0028885892002672e+00  9.1087681859595881e-01  7.9914556275999443e-02  8.9515705862114603e-02  5.4899904770257346e-01  5.6664783255499940e-01  5.1062476992816359e-05  9.9991573956132951e-01  9.7744772294009696e-01  9.9537506764306907e-02  3.5366058606311929e-01  3.5382716758704208e-01  9.6347309996601593e-01  2.7630303726122248e-02  -4.2780790455726848e-06  1.0000254795669552e+00  7.4030017899051881e-01  8.8847762166420749e-02  5.0890860253878019e-02  8.1697681281723250e-02  3.5446389027505631e-01  8.8986484806190103e-01  8.2572497936299483e-01  2.2002614135951178e-02  5.9058060655418176e-01  6.2854962033435580e-01  9.8726291015296708e-01  9.9113986285107991e-01  1.0023014691887677e+00  9.9198851114370890e-01  9.5942961605605237e-01  7.2954158532027158e-01  1.2268453585470296e-01  8.0532407825247887e-01  9.9452617115884789e-01  8.6493921716178190e-01  2.1788163789152831e-01  3.5347047275869775e-01  1.0429841216557427e-01  1.2906526879296737e-01  9.9716383514647500e-01  -3.8895332619857670e-03  6.5344748641394723e-01  1.0017548279099473e+00  9.9828332069481573e-01  9.9687414336127500e-01  9.9348370391031859e-01  9.8652197963123733e-01  6.3601912075982359e-01  7.5453275275227305e-01  7.7875018963755371e-01  6.4697457663368918e-01  2.1030045543220061e-01  9.5968673282633632e-01  9.3636010008824500e-01  1.4293997480265444e-01  3.1050095936779926e-01  7.5885628994049170e-01  9.0998823801800099e-01  5.8866173356485606e-02  4.8051618430003606e-01  9.9996546927943863e-01  9.9306171427148066e-04  6.8741730755401187e-02  4.5226823571362816e-03  3.2077228289661210e-04  -5.8631392853649149e-04  1.0009756650733408e+00  4.1116886174261241e-01  -7.3845515352952773e-03  7.3754161484831082e-01  9.8652379329451090e-01  3.7093033235355716e-01  8.7057778121692808e-01  9.4756411530796447e-01  9.3147948409036196e-01  6.6263953825063282e-01  -1.5058858505020145e-03  -4.3071939442005675e-03  4.0353874173569243e-01  9.7986344243848145e-01  9.9999999999999956e-01  -1.6314735225954638e-06  7.4261260851519828e-01  8.7534271403151134e-02  1.2635375975489616e-01  1.0013658257574316e+00  9.6266612853730971e-01  7.1778805132661760e-01  1.9589692630900712e-01  8.6557379567509807e-01  1.0000518377765077e+00  -8.0622295240578494e-06  4.1218460460211076e-01  -2.4689805802083128e-02  7.7520003148882732e-01  4.5730343408612430e-04  1.0013572872145986e+00  2.8485878201207249e-01  7.3110281313296943e-02  9.7207931533266689e-01  3.7510613056123487e-01  2.3376862153562386e-01  9.8203620338421327e-01  3.4651364837923965e-01  8.2680968802966093e-01  3.3903045092987533e-01  3.7146595343184363e-01  5.7260327372670609e-02  8.1728580744358192e-01  2.5392560027143751e-01  1.4211187903681921e-01  5.3694274650066846e-03  -4.0978984314927408e-03  -2.9194018616025392e-03  9.6132419855454003e-03  2.5741653990736746e-01  3.9627794421238388e-01  1.3771824233562505e-01  9.9997375467816041e-01  9.6814902503808189e-05  6.6312569573471786e-04  1.7210061865015912e-02  9.9996628117703901e-01  2.8238550256511036e-01  1.8812596852392471e-01  9.3419763911992970e-01  8.0683905649522336e-01  8.3481294681339313e-01  9.4369432998090341e-01  9.2876164372613901e-01  1.0064841787484800e+00  3.7466512409855733e-02  6.8591254970712398e-03  4.1676151440099632e-02  1.0035315630271542e+00  9.8893466924499163e-01  7.7365419861282991e-01  7.3594006103684007e-01  9.5849284239356891e-01  9.6171708970731340e-01  3.3764719750598066e-01  1.0002916585910824e+00  9.5122555028984668e-01  9.9868082704537775e-01  1.0002993023213200e+00  9.9822608668866752e-01  6.9623984039567766e-01  8.2260714000914326e-01  6.4104403614262828e-01  5.1904400772465831e-01  -5.0840884738846065e-03  1.2030978365531371e-01  4.3017855999009408e-01  8.3075254288848865e-01  9.2155278004136976e-01  6.8493828941762636e-01  9.3273702692474059e-05  9.8106977482453683e-01  2.4019082343527146e-01  1.0956820239425516e-01  1.4122783048204637e-01  1.0003692197221254e+00  3.2049872625822033e-02  1.0043264046066109e+00  8.4468696823844458e-01  7.2607500928159041e-01  1.0529619818982368e+00  7.6312484924442924e-04  -4.9690059574384617e-04  9.1460478427762637e-01  -5.9270133876883555e-03  1.1947575371945553e-01  9.7412046232533911e-01  6.5167507180628259e-01  9.5593812411378509e-01  9.6816419393472519e-01  3.1077689707220690e-01  8.2667968501710309e-01  -2.4096067461083021e-02  1.7878533644446895e-01  9.9998108861000479e-01  -2.9534389680020543e-05  1.0000254668413913e+00  9.4732932218736840e-02  3.3111650159561512e-01  3.7320571669050401e-01  -3.9577978656945179e-04  6.8923047877693011e-01  9.8345446568625094e-01  -3.8270679543451146e-03  1.0440714789797825e+00  1.5787495165274168e-01  1.2253744224505393e-01  9.4777500544184268e-01  9.5138142445896934e-01  9.4818916434177358e-01  6.1844465645100591e-03  9.3958173403184575e-01  1.7303614188543626e-01  3.0187021173154551e-02  8.3794694805649269e-03  7.0330141911026309e-02  7.5328114194649021e-01  3.5022029013118988e-01  7.0124232738404263e-03  3.8336558882719210e-02  9.9090421502216786e-01  8.0254518494188842e-01  8.7827398422646130e-01  1.1526395099346824e-01  -1.4445029070870941e-03  8.4346814289522698e-01  9.4249401187916149e-01  9.9724708121594186e-01  9.1869915344769726e-01  9.4168071871259795e-01  9.7785375675220151e-02  3.5689816555546000e-01  2.4014469419565354e-01  6.6943949741888784e-04  7.6681561494071304e-01  -2.4767522074704049e-02  9.8387555985841324e-01  9.9986104582422719e-01  9.5179041216271798e-01  9.3895237989820701e-01  9.8481285228640658e-01  9.9890296847686777e-01  8.0540638264807340e-02  9.9923829877049009e-01  7.4010207743345147e-01  7.6000155353094179e-02  7.5168351163683242e-02  4.4525434109864960e-02  9.2808307136805757e-01  1.0012025435679304e+00  3.3557239005160396e-02  1.4484660211758435e-02  9.9582132608848539e-01  1.1442046251489349e-01  1.0516766291390045e-01  8.3773883811599253e-02  9.8517408158690245e-01  9.9675826668927381e-01  1.0000077604147357e+00  7.0124205250880944e-01  7.7273785780266793e-02  8.9069575004794843e-02  1.0007308065182881e+00  -1.9167170774282340e-03  9.9853344531836707e-01  1.9625652963159760e-04  6.6537113306186946e-04  2.4301227377686932e-03  -1.0868394298146882e-21  7.7536828651456312e-06  7.1591092487529340e-05  1.0000000000000011e+00  1.2239157361891542e-21  7.8619122721135058e-03  1.0122503651535701e+00  1.0009409448013671e+00  3.8232378090806646e-01  9.9874568574853073e-01  3.5461151722731515e-01  1.0000560368771048e+00  1.0002037045034231e+00  5.7637727870359177e-03  1.0010735193446185e+00  2.2576519461192592e-03  1.0001515799118244e+00  8.9811409706156176e-01  1.0019050359241706e+00  9.6515302419893501e-01  5.5119427286260170e-01  3.4466358875222114e-01  1.8001171774830246e-01  8.4293852496089144e-02  5.2157129294321598e-02  1.8600890764956840e-01  5.5793984152445644e-02  9.9174329453987853e-01  2.5893184457017819e-02  9.8030185646541013e-01  9.2491787826313543e-01  1.4242669090732740e-01  7.9749631499850238e-01  9.7992587357320149e-01  9.0738914600869680e-01  4.1685425613283061e-01  -1.9750587033390245e-02  2.1361582703108574e-03  2.2903769368984600e-01  4.6339939930434665e-01  9.3040924936786651e-01  2.7347371212765625e-01  1.5365654694086792e-01  2.4103407550112513e-01  5.9050964346041335e-01  1.0020882525243864e+00  8.5692906833084592e-01  9.9674473426782373e-01  9.4049966354478032e-01  9.1982365936905042e-01  3.3595987387011168e-04  9.2755636689070420e-01  -2.8184166024561608e-05  1.0037566569433034e+00  9.6145818248184056e-01  5.9095158981294416e-01  3.7782348795220955e-01  6.8188287665346264e-02  2.0532003056358458e-01  3.8594788416603965e-01  1.0031077155253445e+00  8.6695783772420676e-01  7.7235574534823759e-01  9.9972422011129569e-01  1.8087269841291772e-02  2.3376410510838708e-01  4.4139388740721347e-01  4.0669383172279872e-01  4.6714525373890382e-03  1.4008782623093760e-02  -1.1426032676592468e-03  8.9941147638654295e-01  7.0831949259760640e-01  4.1337323236642248e-01  9.5168637543671808e-01  7.4187522996097033e-01  8.9247616951546216e-01  8.8787770684158529e-01  5.9047912292953275e-04  8.7083956660495065e-01  1.0037998631265050e+00  2.3872895181638623e-01  4.2298252788654289e-02  9.8130095823929708e-01  3.4736573134094878e-01  4.1598497806858387e-01  9.2736803623939834e-01  9.9548647579066296e-01  -1.0342263075968455e-02  7.3436682769787887e-01  8.1715311073038877e-01  4.9526781565086325e-01  8.3485054846116014e-01  2.4391299302490679e-01  3.9285112840821595e-01  9.9994852176112015e-01  6.1276138149277637e-01  8.6144061200128597e-01  1.4586610712759010e-01  5.9314069180277706e-01  9.9574391673220141e-03  -2.1311454824398242e-04  2.1837653050156222e-01  9.3898575750673896e-02  5.8223930175788198e-03  9.9378144497490573e-01  9.9859222240293832e-01  8.8210613670981353e-01  9.8752758433509435e-01  4.5577308623762058e-01  3.9983433428760054e-02  5.0887797493317000e-01  3.9612135155361569e-06  1.6366253181071985e-02  9.3678992612245371e-01  1.9656834632237150e-01  3.2225184647986072e-01  9.3571178214065642e-01  3.8355313662855550e-02  4.3528408117575485e-03  6.9628792625893521e-01  4.9467452809416274e-01  9.7882034912309379e-01  6.6335697485564837e-01  2.1021340699663921e-01  2.0894550277863055e-01  2.3759022352810660e-02  6.1204532470585926e-01  5.4777591463346886e-01  1.0061503147563324e+00  -3.5945070899134516e-04  -1.4936004287112090e-03  9.9856178985557198e-01  2.3507888734842325e-01  9.5246594428379361e-01  9.8827428491295388e-01  1.0001624856796294e+00  9.9814633436089228e-01  9.9612048722738744e-01  7.3513195700542122e-01  3.9592607726100282e-01  7.0198164706831945e-01  1.6387815036887957e-01  3.6885033629467068e-01  7.9113967303673080e-02  5.4414420478368597e-01  9.7603437562839468e-01  9.5519207284796159e-01  9.8997030853676937e-01  1.8227264748632834e-05  9.9959399660657200e-01  9.9998334960696078e-01  5.5038845377517320e-01  5.0927389423561953e-01  9.8130771064674605e-01  3.5480644086087193e-01  3.1702931840869686e-01  9.9927018267918311e-01  1.0006591998326864e+00  -5.4008573026738688e-03  9.9819510387971411e-01  -2.9648994346721004e-05  6.4995127253537746e-02  4.1302073781158428e-03  9.9940068009885286e-01  9.9854929647748569e-01  -8.3691029161669570e-04  9.4823729274133384e-01  9.8284612831798612e-01  9.9535090597158815e-01  4.2626768648136332e-01  7.5461124820844072e-01  9.9983554712575418e-01  1.2476881153563979e-03  1.5014443542080034e-02  -1.2487090970185039e-03  1.0069686279250303e+00  1.0060620345652129e+00  1.2183141026282709e-01  3.8143319292551409e-01  7.3823152602226549e-01  2.3349803787289544e-01  1.1992139988618479e-01  1.2373046367020644e-01  5.3812702912851462e-01  3.6095147515239739e-01  7.0053321600091667e-01  4.5665908432853203e-02  1.9519114297880907e-01  9.0486874330988926e-02  9.8067666957010902e-01  6.8863859918778136e-01  9.0686838273039527e-01  6.6373053905499735e-01  4.5236551243135731e-01  1.1322269908668442e-01  1.1157382100158988e-01  1.8844218294155790e-01  2.2331481190330543e-01  -1.9762696170875374e-03  -8.6951224977322859e-04  2.4472510494487657e-04  9.4954367987542720e-01  9.5495530964958186e-01  8.3985470938029105e-01  8.0040766780338324e-01  9.7526192224550312e-01  9.4897495644194962e-01  6.9190310308579117e-01  9.7033806356275565e-01  8.8950895555666964e-01  8.3826549087844471e-01  6.1216722721337713e-01  1.0451239332567996e+00  1.0023842204167437e+00  4.7964372026849739e-01  8.6691022623008007e-01  7.6935422344794147e-01  5.9831580268820528e-01  8.4637564353821770e-01  9.1030783648649349e-01  7.7515107882637591e-01  8.9577023908204423e-01  8.9090359965944643e-01  5.7368123368148605e-01  9.6194487710403442e-01  5.5199907523104907e-01  6.2972747657616268e-01  1.3215495285538198e-01  9.7131546165704163e-01  6.9064714008296457e-01  1.9174668692733683e-06  6.6848954932672389e-01  7.2955311091465058e-01  9.8242971767006893e-04  4.2360595008759167e-01  1.0008599258589579e+00  1.0027018902868006e+00  9.6540706118916442e-01  -5.1409632313010782e-03  -5.6941862790111791e-03  8.8577462981856270e-01  8.9868289616299613e-02  9.7811678133464663e-01  9.8955389622355328e-01  4.3864809547670578e-03  1.7377465689800586e-01  1.2626641950690728e-01  1.9482438608225369e-01  9.8950883046001331e-02  9.9876542343288532e-01  5.3507872533750600e-01  3.9149993877884087e-01  7.5742263349478889e-01  6.8995265160034047e-01  3.5000936739900917e-01  3.7182514082000356e-01  2.3443739575450203e-02  4.0777573581941007e-02  1.4141668995685736e-01  6.3097786089416352e-02  3.9955521071234068e-03  4.9296632227940361e-02  1.0000670667685749e+00  8.8540625882109446e-03  5.7260741838237504e-02  6.2993378829732674e-02  2.2378082071788569e-01  1.9327360391907817e-02  7.7140229204617183e-01  4.1754887484346731e-01  8.9588464710730864e-01  -3.2100817174465425e-05  -6.2234977422542239e-03  4.3677035808765374e-01  6.5838731571728260e-01  -1.3798829544201162e-04  9.5056062384692097e-01  9.8772709182858098e-01  8.9673969784787944e-01  -2.0198370125479044e-02  1.6125551335068242e-03  1.0001316868948362e+00  4.9123333971410765e-01  1.0032359932887431e+00  1.0007838395896869e+00  9.7302689255212449e-01  5.9045232588870822e-01  9.0287177468192759e-01  7.4086794303073356e-01  5.5340856302555318e-04  1.0002047942002292e+00  1.0004577911880506e+00  4.6123529095715536e-03  5.0125619632059393e-01  -1.8130840231906371e-05  2.2599664342658156e-04  1.9977512643103133e-02  1.8561342288516977e-01  1.0000802096769308e+00  9.9432850898862468e-01  1.0003937162813636e+00  3.4253336183251232e-01  1.6650544149004090e-01  1.0045713766518669e+00  1.0842016719656926e-01  9.9974484933245744e-01  3.7993089428229295e-03  2.7272089378914777e-02  9.5680846790648177e-01  -5.8827193494431609e-05  9.9948357920035069e-01  9.9892531959353703e-01  6.6807651374621779e-01  3.0470150690216280e-01  8.2128164405367594e-03  8.2832765671636932e-01  8.2975087998915009e-01  9.1924228272024555e-01  9.1221782768197812e-01  7.9078540209741321e-01  9.9981395959129815e-01  2.3130223547913187e-01  2.9043151825103458e-01  6.9072399487794600e-01  9.9821987785608068e-01  9.9941570560427218e-01  8.2139113388477947e-01  1.0650139751384384e-01  -1.5906414450894541e-04  1.5870171998680516e-01  7.1482529639683634e-01  1.4258541471741515e-01  5.1802702007892373e-02  1.2647513300429614e-01  5.3676284123592233e-01  2.5383654134861594e-01  6.1510739289311847e-02  2.4886085374919677e-02  4.4854395075760820e-02  9.2771820665623150e-01  7.8868770840324193e-04  1.0096203900720864e+00  1.5875337671341666e-01  9.9990159652289690e-01  9.9883949436536190e-01  9.8364888798194772e-01  9.9619174817647271e-01  9.92410