<?xml version="1.0"?>
<VTKFile type="UnstructuredGrid"  version="0.1"  >
<UnstructuredGrid>
<Piece  NumberOfPoints="1079" NumberOfCells="1944">
<Points>
<DataArray  type="Float64"  NumberOfComponents="3"  format="ascii">0.08500000000000001 0.02 0  0.005 0.02 0  0.005 0.03 0  0 0.03 0  0 0 0  0.005 0 0  0.005 0.01 0  0.08500000000000001 0.01 0  0 0.015 0  0 0.0075 0  0 0.0225 0  0.04500000000000001 0.02 0  0.04500000000000001 0.01 0  0.025 0.01 0  0.025 0.02 0  0.065 0.02 0  0.065 0.01 0  0.035 0.02 0  0.035 0.01 0  0.07500000000000001 0.02 0  0.07500000000000001 0.01 0  0.015 0.02 0  0.015 0.01 0  0.05500000000000001 0.01 0  0.05500000000000001 0.02 0  0.07000000000000001 0.01 0  0.07000000000000001 0.02 0  0.05 0.01 0  0.03 0.01 0  0.03 0.02 0  0.04000000000000001 0.01 0  0.01 0.01 0  0.02 0.02 0  0.06 0.015 0  0.08500000000000001 0.015 0  0.05 0.02 0  0.07250000000000001 0.015 0  0.04000000000000001 0.02 0  0.03750000000000001 0.015 0  0.0525 0.015 0  0.02 0.01 0  0.01 0.02 0  0.0275 0.015 0  0.0125 0.015 0  0.08000000000000002 0.01 0  0.08000000000000002 0.02 0  0.0325 0.014375 0  0.04291666666666667 0.015 0  0.065 0.015 0  0.005 0.005 0  0.005 0.015 0  0.02208333333333334 0.015 0  0.07791666666666668 0.015 0  0.005 0.025 0  0.06 0.01 0  0.06 0.02 0  0.01729166666666667 0.01572916666666667 0  0.04770833333333334 0.01427083333333334 0  0.06875000000000001 0.01625 0  0.008750000000000001 0.01625 0  0.05625000000000001 0.01625 0  0 0.00375 0  0 0.01875 0  0 0.01125 0  0 0.02625 0  0.08145833333333334 0.01354166666666667 0  0.0675 0.01 0  0.0075 0.0125 0  0.0625 0.0175 0  0.0575 0.0125 0  0.0625 0.0125 0  0.08207465277777778 0.01707465277777778 0  0.06767857142857144 0.01321428571428571 0  0.0175 0.01 0  0.01875 0.01291382575757576 0  0.0475 0.02 0  0.04564168086314595 0.01679860519591141 0  0.00296875 0.0125 0  0.0025 0.03 0  0.0025 0 0  0.00296875 0.0175 0  0.01521990740740741 0.0132349537037037 0  0.0497800925925926 0.0167650462962963 0  0.0325 0.02 0  0.03474264705882353 0.01674632352941176 0  0.03750000000000001 0.02 0  0.03025735294117647 0.01674632352941176 0  0.0275 0.02 0  0.0525 0.02 0  0.0125 0.01 0  0.04020833333333334 0.01322916666666667 0  0.03750000000000001 0.01 0  0.0225 0.02 0  0.02479166666666667 0.01677083333333333 0  0.07520833333333335 0.01322916666666667 0  0.07250000000000001 0.01 0  0.07520833333333335 0.01677083333333334 0  0.07250000000000001 0.02 0  0.04020833333333334 0.01677083333333333 0  0.0225 0.01 0  0.02375 0.01262152777777778 0  0.04250000000000001 0.02 0  0.04250000000000001 0.01 0  0.07750000000000001 0.01 0  0.07750000000000001 0.02 0  0.05036151960784314 0.01294424019607843 0  0.0705560064935065 0.01284699675324675 0  0.05458333333333334 0.01291666666666666 0  0.0021875 0.024375 0  0.005 0.0275 0  0.01125 0.0175 0  0.01463848039215686 0.01705575980392157 0  0.01 0.01375 0  0.03625 0.0125 0  0.0021875 0.009375 0  0.05375000000000001 0.0175 0  0.07125000000000001 0.0175 0  0.005 0.0025 0  0.0021875 0.005625 0  0.02655220103578155 0.01234889948210923 0  0.002187499999999999 0.020625 0  0.02979166666666667 0.01302083333333333 0  0.0525 0.01 0  0.07895833333333334 0.0125 0  0.01994277885235332 0.01704213007736944 0  0.07934656179076068 0.01733823814273861 0  0.04505722114764669 0.01295786992263056 0  0.06625 0.0175 0  0.006250000000000001 0.0175 0  0.05750000000000001 0.02 0  0.05875000000000001 0.0175 0  0.005 0.0225 0  0.005 0.0075 0  0.002375 0.027375 0  0.002375 0.002625000000000001 0  0.0475 0.01 0  0.0175 0.02 0  0.0325 0.01 0  0.03375 0.0121875 0  0.04261299435028249 0.01749205508474576 0  0.08500000000000001 0.0125 0  0.08250000000000002 0.01 0  0.02121963399965531 0.01224824108143494 0  0.0675 0.02 0  0.0125 0.02 0  0.02720152243589744 0.0175 0  0.03715165441176471 0.0175 0  0.08500000000000001 0.0175 0  0.0275 0.01 0  0.0025 0.0149560546875 0  0.0075 0.01 0  0.0075 0.02 0  0.06526785714285716 0.0125 0  0.01281031447005516 0.0125 0  0.0625 0.015 0  0.06 0.0125 0  0.05750000000000001 0.01 0  0.0625 0.02 0  0.0625 0.01 0  0.08250000000000002 0.02 0  0.04260103740101855 0.01252623201412851 0  0.02240052247582197 0.01750164767101344 0  0.07293583459427785 0.01238479732953041 0  0.005234374999999999 0.012265625 0  0.03528131980640358 0.01454684009679821 0  0.0325 0.01760027210036557 0  0.02532593822924343 0.01428227733767297 0  0.08009952069819683 0.01527145502895417 0  0.01987282359856536 0.01482587683689801 0  0.04828232595121382 0.01210233572595705 0  0.01671767404878618 0.01789766427404295 0  0.05125 0.01829007549029352 0  0.05247215456215357 0.01288882122882024 0  0.07338729919678716 0.01799385040160642 0  0.03838729919678716 0.01200614959839357 0  0.07717482110586968 0.01780301674207099 0  0.04771860040890012 0.01773306039388322 0  0.03125 0.01160380747126437 0  0.06875000000000001 0.01154265873015873 0  0.07625000000000001 0.01154065860215054 0  0.01625 0.01153997817696946 0  0.068125 0.018125 0  0.05437500000000001 0.015625 0  0.066875 0.015625 0  0.07039794950204951 0.01494384850614853 0  0.05687500000000001 0.018125 0  0.006875 0.015625 0  0.008749999999999999 0.01833333333333333 0  0.010625 0.015625 0  0.05625 0.01416666666666667 0  0.05812500000000001 0.015625 0  0.0449088595298192 0.01494528408816316 0  0 0.016875 0  0 0.013125 0  0.04962452342047931 0.01478673066448802 0  0.0153754765795207 0.01521326933551198 0  0.0771774565913315 0.01322498191305479 0  0.01857756431135545 0.01840228599899994 0  0.04642243568864456 0.01159771400100006 0  0.08125000000000002 0.01155637254901961 0  0.08317650804863432 0.0118234919513657 0  0.08288217288011697 0.01511353252923977 0  0.02837253504384828 0.0117177464035174 0  0.03896057962520807 0.01831163685754031 0  0.01125 0.0114244162490927 0  0.00935910490099115 0.0119067901980177 0  0.02946078431372549 0.01495404411764706 0  0.02875 0.0185829434466942 0  0.002968749999999999 0.0225 0  0.064375 0.016875 0  0.00296875 0.0075 0  0 0.001875 0  0 0.005625 0  0 0.009375 0  0 0.020625 0  0 0.024375 0  0 0.028125 0  0.06062500000000001 0.01812500000000001 0  0.008303571428571429 0.01446428571428572 0  0.01375 0.01865917058160413 0  0.05137790313978056 0.01143372888932909 0  0.04125000000000001 0.01131513063942604 0  0.04101690263896279 0.01844430285842771 0  0.02399563533148224 0.01844349395710867 0  0.08125000000000002 0.01868815426145731 0  0.05354684380692146 0.01145463537600848 0  0.01699195823639423 0.01315138909884649 0  0.07598357371794873 0.015 0  0.04098357371794872 0.015 0  0.003744047619047619 0.00375 0  0.003344630281690141 0.02580853873239437 0  0.04625 0.0187354532243972 0  0.06388392857142858 0.01138392857142858 0  0.06375 0.01375 0  0.05875 0.01375 0  0.06375 0.02 0  0.00622802734375 0.01372802734375 0  0.003630681818181818 0.001369318181818182 0  0.003630681818181818 0.02863068181818182 0  0.06125 0.01625 0  0.06125 0.01125 0  0.05625000000000001 0.01 0  0.05875 0.01125 0  0.06125 0.01375 0  0.08337864763241221 0.0183786476324122 0  0.05213634138653413 0.01674432930673294 0  0.04375000000000001 0.01 0  0.07424178685897437 0.01529258578431373 0  0.03924178685897436 0.01529258578431372 0  0.03410139294454583 0.01843406022904556 0  0.03089860705545417 0.01843406022904556 0  0.02094160484316717 0.01850229584291991 0  0.04375000000000001 0.02 0  0.04437042160883325 0.01820701498672512 0  0.04816311705429156 0.01600061344661149 0  0.07151224904251052 0.0114127410511319 0  0.04395528506193162 0.01639387970349481 0  0.0128750358694518 0.0167500179347259 0  0.02855808448399799 0.01642839899839741 0  0.02812690373330794 0.01340955081400569 0  0.08358500641945087 0.01351822349116885 0  0.05590277777777778 0.01173611111111111 0  0.06683110430364615 0.01164926404662283 0  0.02573206694914602 0.01842532451809762 0  0.01438126661842046 0.01166701193099454 0  0.02384283211216029 0.01526549696571563 0  0.03625 0.02 0  0.004609375000000001 0.0182421875 0  0.003398437500000001 0.01943359375 0  0.001728307845744682 0.01894718251329787 0  0.004377805359085963 0.01656966216675735 0  0.04649673309852075 0.0153889662370871 0  0.03615513600614297 0.01592654988586041 0  0.03316985071935832 0.01598763605018279 0  0.03110111603888768 0.01529816275177977 0  0.01370614113484869 0.0138804542047638 0  0.04930041102671841 0.01842260568883502 0  0.07875000000000001 0.02 0  0.0745395359848485 0.01165101111925709 0  0.03860755698543604 0.01373741558556884 0  0.02605038706571737 0.01573944002207753 0  0.07559826163500957 0.01841729376139847 0  0.04437500000000001 0.01149157931286774 0  0.06874116707361365 0.01454618473032123 0  0.003761917372881356 0.0239307468220339 0  0.003984374999999999 0.01125 0  0.003768503289473684 0.01392539576480263 0  0.001796875 0.0111328125 0  0.003761917372881356 0.008930746822033899 0  0.005 0.00625 0  0.003761917372881355 0.0210692531779661 0  0.06633928571428571 0.01410714285714285 0  0.006484375 0.01125 0  0.08364120589325512 0.01657288979763549 0  0.03576267476503373 0.0184116442851204 0  0.07370875846579374 0.0137848203678562 0  0.06964285714285715 0.01758928571428571 0  0.05520833333333334 0.01833333333333333 0  0.06491071428571429 0.01839285714285714 0  0.0510098951944636 0.01559941474766356 0  0.01786087179886325 0.0115702210443714 0  0.01972197383235524 0.01160576093166696 0  0.01804697593127788 0.01433503795474974 0  0.001644074528704677 0.01642892723865279 0  0.00125 0.03 0  0.001497685185185185 0.001267746913580247 0  0.07315451164202422 0.01643443118912983 0  0.001233906745910645 0.0140625 0  0.01162635071030191 0.01362229857939618 0  0.01528023503083844 0.01845923557506155 0  0.06625 0.02 0  0.07695012019230771 0.01624387078484555 0  0.03139091092855769 0.01320776147621796 0  0.03857339107781042 0.01675295051810485 0  0.001754993120977522 0.02590789105493891 0  0.002288757784711197 0.00412546923654445 0  0.07914382119690884 0.01404430049871201 0  0.001391810103286306 0.01257390899021902 0  0.0419501201923077 0.01614675005432421 0  0.001484375 0.007018229166666667 0  0.001484375 0.02201822916666666 0  0.048
[...]
<PointData  Scalars="concentration"> 
<DataArray  type="Float64"  Name="concentration"  format="ascii">5.3943944972854518e-01  9.9627983938956322e-01  9.9999999999999822e-01  9.9999999999999922e-01  -1.7771458472818952e-22  5.4006530487230424e-24  9.7591817189458373e-03  5.3360646289653402e-01  5.5911693088215075e-01  5.7743946680916057e-04  9.9984814888357199e-01  5.7598070572892934e-01  4.9716952853603635e-01  3.8896689221139447e-01  6.8285511397198595e-01  5.4712121138217007e-01  5.2586041552321039e-01  6.1249255864442465e-01  4.5978744032380642e-01  5.4200617481341218e-01  5.3105209617824489e-01  8.1479291860403891e-01  2.5038924550651709e-01  5.1606054321316641e-01  5.5694205334157065e-01  5.2889083755950828e-01  5.4417323655897187e-01  5.0803911259031009e-01  4.2988709053743190e-01  6.4202574344717700e-01  4.8165438252663340e-01  1.3897721183498549e-01  7.3854974121376660e-01  5.3652553015489057e-01  5.3652151990567387e-01  5.6487792401435466e-01  5.3651640021624281e-01  5.9125098648080177e-01  5.3652420191182337e-01  5.3650012131658298e-01  3.3196080836501951e-01  9.1227725197387444e-01  5.3682074645842615e-01  5.4262191234587087e-01  5.3258527186183124e-01  5.4047266592389709e-01  5.1811136437784733e-01  5.3654473882096465e-01  5.3653163219206801e-01  1.0728279668535866e-06  5.5877926261892430e-01  5.3713408286614006e-01  5.3652213252217940e-01  9.9999991391245358e-01  5.2181568701777825e-01  5.5122744280998826e-01  5.9735207353181885e-01  5.2865212827708108e-01  5.3984362329974256e-01  7.2476816220484397e-01  5.4413194762162098e-01  6.2137522003884738e-06  9.7499015766731334e-01  5.0119735618169833e-02  9.9999887955636468e-01  5.3486913288487359e-01  5.2757511197250739e-01  1.8697250991068870e-01  5.4581250592994901e-01  5.2374488024732158e-01  5.2731966275179754e-01  5.3868395081929255e-01  5.3159878151792739e-01  2.9461017980947207e-01  3.9620375237742045e-01  5.7009028190140842e-01  5.5781057905869769e-01  1.2747308210952407e-01  9.9999999999999867e-01  -1.0401941128162397e-23  9.3111452446402010e-01  3.8294236618111349e-01  5.5250109741742270e-01  6.2610227828000686e-01  5.7876270607462832e-01  6.0115769595644930e-01  5.9326863623754500e-01  6.6159274953679170e-01  5.6060124451256776e-01  1.9791889716240749e-01  5.0650044364750835e-01  4.7199792895525611e-01  7.0963978799477778e-01  6.1875532942710554e-01  5.3352431417896928e-01  5.3006254678661247e-01  5.3951359222177397e-01  5.4299214159503739e-01  5.6654690377578487e-01  3.6340022894351087e-01  4.2328704382010718e-01  5.8303678009124549e-01  4.8991623741901802e-01  5.3182461314295604e-01  5.4118854424012908e-01  5.1906978954748140e-01  5.3171230157990335e-01  5.2312876960854660e-01  1.0000001333507265e+00  9.9999999606514822e-01  8.0366037016421465e-01  7.2002979137068024e-01  3.7923737020761428e-01  4.8445681370556015e-01  2.8023384743686023e-03  5.5287329847782629e-01  5.4172019908657143e-01  -6.6601147907365747e-09  6.7855434157284281e-06  4.3382767713462467e-01  9.9960966994405309e-01  4.7095541393767820e-01  5.1247064173382373e-01  5.3339421948010535e-01  6.6476047604959221e-01  5.3942158154397724e-01  5.1198943988160783e-01  5.4368802749287837e-01  9.0401129494529098e-01  5.5395360685749329e-01  5.4838020391935172e-01  9.9998986501413933e-01  6.6233816225071270e-05  1.0000000090785492e+00  -1.1695124047284787e-07  5.0312874252429918e-01  7.7431811286018204e-01  4.4696397031988944e-01  4.7014374316104340e-01  5.7075236966628862e-01  5.3439992638457523e-01  5.3318564587529460e-01  3.8725393357199023e-01  5.4550386013621643e-01  8.6026676766033239e-01  6.3034869596764398e-01  5.8496755725468541e-01  5.3864172025323631e-01  4.1185845553871481e-01  5.5313756137163672e-01  7.1692619973781693e-02  9.6171614942051531e-01  5.2882932055686072e-01  2.9289658718356310e-01  5.3653996974433504e-01  5.2573863880552374e-01  5.1907875927959946e-01  5.4907521633680523e-01  5.2400732426228580e-01  5.3985889767717810e-01  5.0265885835939828e-01  6.6534175114088501e-01  5.3171197992888686e-01  1.1210485156301014e-01  5.2507388694245261e-01  6.0467714946350637e-01  5.0235991246076916e-01  5.3688557256518910e-01  5.2624724934286460e-01  5.1031081777805509e-01  7.4387026546950896e-01  5.5961631452614935e-01  5.2100731648991394e-01  5.4164043843286702e-01  4.8562734761207549e-01  5.4035808597579293e-01  5.6264090459869553e-01  4.4931535451479243e-01  5.2901936291396212e-01  5.3193003344980316e-01  2.9905306603488496e-01  5.4395359164403656e-01  5.4096147458166133e-01  5.3845128878519022e-01  5.3639080752124080e-01  5.5204107831876492e-01  6.5806871623954699e-01  9.0220234585158232e-01  6.2473037780778296e-01  5.3138425576988890e-01  5.3997621809640284e-01  5.3585914561910253e-01  8.5392841500742211e-01  2.2727062888242311e-01  5.3447513500234622e-01  5.5929165172885831e-01  5.3388276425252845e-01  7.3700750796116554e-01  5.0416340189057907e-01  5.3323739891674138e-01  5.3378911554647435e-01  5.3664190988321481e-01  4.3263361141470180e-01  5.8859585552547911e-01  1.9495725900421609e-01  1.7837079235334455e-01  5.3483773634161291e-01  6.4257639308917225e-01  9.9999423578712199e-01  5.4295809276109874e-01  4.6974013619359256e-05  1.8469189602364723e-06  5.0735028785656335e-05  6.0855916658551189e-03  9.9779401198520579e-01  9.9998850653427551e-01  9.9999969543407263e-01  5.4869851577864326e-01  4.6630472698244413e-01  8.2025287140904624e-01  5.1245993499641218e-01  4.8902950902939174e-01  5.8344357087233278e-01  6.7815347929000980e-01  5.3991657532557258e-01  5.1583024808519728e-01  3.9377470422271887e-01  5.3652349922288434e-01  5.3655661318248560e-01  1.8268656092824494e-08  9.9999998282538349e-01  5.7091723358187496e-01  5.2595499196877926e-01  5.3190266724544366e-01  5.3009844302550191e-01  5.4801560596215537e-01  3.3146797997492283e-01  -3.0222737145308427e-08  9.9999999764291292e-01  5.4198311948112898e-01  5.2368608567168151e-01  5.1772267780458259e-01  5.2141024615211573e-01  5.3109648388291808e-01  5.3932408556076217e-01  5.4999237594232264e-01  4.9363272632315869e-01  5.3708799127589435e-01  5.4202290086840510e-01  6.0977652691567630e-01  6.2657692925153985e-01  7.1095760277299591e-01  5.7928603603842699e-01  5.7230376399725991e-01  5.4692128715083588e-01  5.3013081229431958e-01  5.5546164283222066e-01  7.1875309505663920e-01  5.8974865126786058e-01  4.7673964462092139e-01  5.3509608669294384e-01  5.1952114159859064e-01  5.2814894742033847e-01  6.6209225813693362e-01  2.7259387183169181e-01  5.5073703514439276e-01  6.0692083141163955e-01  9.6855822574975392e-01  9.9547082766896755e-01  9.8655243137371773e-01  8.2687409306127302e-01  5.4121101082492640e-01  5.5790879651273517e-01  5.6419543716550480e-01  5.4644926262477844e-01  4.2681440666871190e-01  5.6327482141828433e-01  5.4082514401962201e-01  5.3146733677714975e-01  5.1222205550306443e-01  5.7009536590105425e-01  5.4128503560383023e-01  4.9894359916391012e-01  5.3529841897473074e-01  9.9999952242944679e-01  3.1580236070997976e-02  3.4507195259140139e-01  3.3173877864252591e-02  9.1355326110157840e-04  8.7051618618843783e-06  9.9987996009982738e-01  5.3371348789461304e-01  6.6981908962477424e-02  5.3802183560585093e-01  6.0200722782951377e-01  5.3418371447261381e-01  5.4243741162408521e-01  5.5455642972265706e-01  5.4609515807229003e-01  5.4181145465065828e-01  3.2359608799849260e-01  3.4849842094454153e-01  4.8799774959580405e-01  8.1016718501393792e-01  9.9999999999999911e-01  -7.5722472452531732e-08  5.3936706905364029e-01  3.7368369541779134e-01  3.8320357289744095e-01  7.8762448072807290e-01  5.4629965429329874e-01  5.3847890838492529e-01  4.8226793569863546e-01  5.6962524199148046e-01  9.9999988323559685e-01  3.3850371335014300e-08  5.3522828543577539e-01  1.4051152865013525e-01  5.5457541261942411e-01  1.8596106173757651e-05  9.9992786327711092e-01  5.2154642688068409e-01  5.1023833617199144e-01  6.6944356795629645e-01  5.2778054028706167e-01  5.1619083083025641e-01  6.6770487697278269e-01  5.2085565630829267e-01  5.9416997835601137e-01  5.1857766023782970e-01  5.2861408181873648e-01  4.8819104490728760e-01  6.0254197051912217e-01  4.6339733375563263e-01  4.3676806466334278e-01  4.0543684306783412e-01  3.7582275619976496e-01  3.9982820037963418e-01  3.8116740450453845e-01  5.3146123964928393e-01  5.3421437720391074e-01  5.3231705949101782e-01  9.9999087634899875e-01  1.4786216143388015e-06  1.1071496011818649e-03  4.3781096211704318e-01  1.0000000189256919e+00  4.8535947256778539e-01  4.9173006445919387e-01  5.4346997850053580e-01  5.4175226479158256e-01  5.4846754172819634e-01  5.4540845845006791e-01  5.4272992825553179e-01  8.1495332945416177e-01  4.6732885698918702e-01  4.6658163774298872e-01  4.7506668383736822e-01  8.5519192680079381e-01  9.8228086031444606e-01  5.4350700704872035e-01  5.4063588364368786e-01  5.5235325888228948e-01  5.5841047031478663e-01  5.1186785313479055e-01  8.8437053163785007e-01  5.4788461941092670e-01  8.8548857838945605e-01  8.4164594433912288e-01  9.4968367676552323e-01  5.3885857751276500e-01  5.4658387399513431e-01  5.3734341540725872e-01  5.2989622765895572e-01  2.8575358966418746e-01  5.2954418276745086e-01  5.3167817395665751e-01  5.3919267101859059e-01  5.4043363993348292e-01  5.3792136582514671e-01  6.9894995787189604e-06  5.5881212720749318e-01  5.3381633383354643e-01  5.3223733555842379e-01  5.3281210458558315e-01  7.9419589363496335e-01  5.0575926142031058e-01  9.4142437025899528e-01  5.7839724865074549e-01  5.3958223873779831e-01  7.7525600345231549e-01  1.0565687953504889e-01  1.0869926176379190e-01  6.1831781121481544e-01  3.1373562183658887e-01  4.4656748633815135e-01  5.5536758145882992e-01  5.3891485683490503e-01  5.4480366934294999e-01  5.5006476769987322e-01  4.8155067805819213e-01  5.5437362694228087e-01  2.5581963942973251e-01  4.9612928239974696e-01  9.9999987086285824e-01  1.0108309474647698e-06  9.9999999016771968e-01  5.3058932529339420e-01  4.6620655320917076e-01  5.0788392139473204e-01  1.0434241898752483e-02  5.6705723980672174e-01  5.7904030487926106e-01  3.4697675411922535e-01  7.7846743930605877e-01  5.3379061720098409e-01  5.3347166049198957e-01  5.4870801018774173e-01  5.5084821341560464e-01  5.4247729656849797e-01  4.7699243025181920e-01  5.4419104810565255e-01  4.8330880941456861e-01  4.5404239321628498e-01  4.5398828626613152e-01  4.0489151848883165e-01  5.7750527391668360e-01  5.2965154947523574e-01  4.1556340095334160e-01  4.9380358134748897e-01  6.0015009097184691e-01  5.6281346099271812e-01  6.0947215275868105e-01  5.3069745984533501e-01  2.2644196157111557e-01  5.8703186202496771e-01  6.2108671055731279e-01  6.5424802720077069e-01  5.8364665016087824e-01  6.6422358737572196e-01  5.2660060363798067e-01  5.3230569723120402e-01  5.3028509090604548e-01  1.1066448281502706e-02  5.4621284693910033e-01  3.0454431130146337e-01  6.6558183645149882e-01  6.9712490988724130e-01  5.4354422329073238e-01  5.4156231733204963e-01  5.6735409190893671e-01  6.7181083611612680e-01  5.2944087278352225e-01  6.1894803856657188e-01  5.4157226076699394e-01  5.2677859674537786e-01  5.2502285763888457e-01  5.1429839303368752e-01  5.4015387400731008e-01  6.9526789305663206e-01  5.1012345084395971e-01  4.8571471577077124e-01  5.9599159588176032e-01  5.3289395987292709e-01  5.3146155805682338e-01  5.2825412046573339e-01  5.6266136450720083e-01  5.8747583424647409e-01  9.9999926994863619e-01  5.3767215127643464e-01  5.2007478364233373e-01  5.2468227943597823e-01  8.3888010547030245e-01  1.6691344170384811e-01  9.3617262795114109e-01  2.7297416737585756e-01  4.0503146395379311e-04  2.2481294401305948e-01  -3.9067041626350878e-23  5.9006979168658392e-08  -2.1541582477407153e-08  1.0000000000000013e+00  -1.6689760038943013e-22  3.6229962553354624e-02  9.7341564879272791e-01  9.9989359893317109e-01  5.3536435041067743e-01  7.2357570706962648e-01  5.3148333707221396e-01  9.9999999238484749e-01  6.5099585469797427e-01  4.2188728201456427e-01  7.5563356134190895e-01  4.3916818995722817e-01  9.9999999704558984e-01  5.3925948356185471e-01  6.3428815706738328e-01  5.5728434911418723e-01  5.3650498864952523e-01  5.3058485856019388e-01  5.2479357879700739e-01  5.2266431377787315e-01  5.2044938598843293e-01  5.2652517361130691e-01  5.2288442020810022e-01  5.7304070657458051e-01  5.0018263688056819e-01  5.5259665397104385e-01  5.3958090947598947e-01  5.0060862588561383e-01  5.3926525478083187e-01  5.6739875994580413e-01  5.7056721481428330e-01  5.2728175912888109e-01  2.7881653870957845e-01  3.8608230164137686e-01  5.2447619056567440e-01  5.3486611308771825e-01  5.4199930742185198e-01  5.3438663624526395e-01  5.0637919936651477e-01  5.3197285891166524e-01  5.3791226302495132e-01  9.9218994156199369e-01  6.1706729428116924e-01  6.2436516058525160e-01  5.9422778612308114e-01  5.4079973949208804e-01  1.3018627277823786e-05  5.4124004945406656e-01  1.8045949223714162e-08  9.9731415829347392e-01  6.1716724832160585e-01  5.3774421473615097e-01  5.3369105430313180e-01  5.1679653978318663e-01  5.2843624259349919e-01  5.3506541622895187e-01  7.1752554306738381e-01  5.5362510773854734e-01  5.8418567234238883e-01  9.9999823522820275e-01  3.2912970055824131e-01  5.3246689514407364e-01  5.3518014660475433e-01  5.2220575233568711e-01  3.5109481056326858e-02  1.4648521825347166e-01  1.0990297860787193e-01  5.5835857084930007e-01  5.5279313169995059e-01  5.3548357050335005e-01  6.0466165496221813e-01  5.6797843141257476e-01  5.4567338994466130e-01  5.5056636831039862e-01  3.5905273974793611e-01  5.4096825059384734e-01  7.6414345177928722e-01  5.1780771407952086e-01  5.0532500794221624e-01  6.7931078077277807e-01  5.3366337462128022e-01  4.8052840341517244e-01  5.6408056670584694e-01  5.9704536623074234e-01  2.7162888383728490e-01  5.3831886307865184e-01  5.3979964516324874e-01  5.3608355571451050e-01  6.0076612923667660e-01  4.5533137688976133e-01  4.6471917996568979e-01  9.9999997138198893e-01  5.3768476641182206e-01  5.4141201297643615e-01  4.9673101789247209e-01  5.2798688737604282e-01  4.5848076570988494e-01  2.9093957693034780e-05  4.9238471792301436e-01  5.1526131250242746e-01  4.0881175090849614e-01  6.3252829615495676e-01  7.8309911429050982e-01  5.3946664834800484e-01  5.8273816966712844e-01  5.3551222079954031e-01  4.9947535826418293e-01  5.0929269008726219e-01  5.9193382388261939e-08  4.7618796660749679e-01  5.4254280350610873e-01  4.6166329036413878e-01  5.3424691309594918e-01  5.5949723659039319e-01  3.2394807675451343e-01  6.0064968118636510e-03  5.3774199686100732e-01  5.3614417201915987e-01  5.6317657105088181e-01  5.4901610083934649e-01  5.2189139910341298e-01  5.1977845470882234e-01  4.8046860384736462e-01  5.3756401260000741e-01  5.2760392799348144e-01  7.6746953830565123e-01  8.6810127006270359e-06  6.2321392942934649e-05  9.9998708863792340e-01  4.2659016933445237e-01  5.4645329547869292e-01  8.9342059314406308e-01  9.1476803449819899e-01  9.4270900883843445e-01  8.3494755652544006e-01  5.3906902608481799e-01  5.3474828338335667e-01  5.5041274448989419e-01  5.1498760215265893e-01  5.2807316739829668e-01  4.6500451468311349e-01  5.3393652770649114e-01  5.6109285082047622e-01  5.8123990725691588e-01  5.8910278615638201e-01  8.0432127989871223e-08  7.3570489111197668e-01  9.9999996830018589e-01  5.3653201120847538e-01  5.2429546674220218e-01  6.2847644997408714e-01  5.1505710843179853e-01  4.9678312702366106e-01  7.4343523266668787e-01  9.9936268133564843e-01  4.5513089915175095e-02  6.2051848796421805e-01  1.0909943544701687e-07  4.5470765882529096e-01  4.3699931979020984e-01  9.9999224989807867e-01  9.9994889757083261e-01  8.8630689759048255e-05  5.6802202432102999e-01  5.7411028875758352e-01  7.1951886254183162e-01  5.1633253515753874e-01  5.5165290271497103e-01  9.9999793906162981e-01  4.4092049977376456e-04  4.6812003852342438e-01  1.3115605179560402e-01  9.5423452287427390e-01  9.8058607986047930e-01  5.3240259268048051e-01  5.2768967224661523e-01  5.7114669091102510e-01  5.3395037609366658e-01  5.3280491116664974e-01  5.3310529768192716e-01  5.3468884254443483e-01  5.2299612183408684e-01  5.4610547687270683e-01  5.0964385196158801e-01  5.3009126158902342e-01  5.2806407043726455e-01  7.2614668537036597e-01  5.4354375578772152e-01  6.3841658701696502e-01  5.5322802462114695e-01  5.3062377606120759e-01  5.3175335358687958e-01  5.3132388132966768e-01  5.3225560028024987e-01  5.3289208987856285e-01  2.8801453640850389e-01  3.1057209968357968e-01  2.6644893337467235e-01  5.8469026490607745e-01  5.4742499436194492e-01  5.4553932055443422e-01  5.4298858444411324e-01  6.8927054457347936e-01  5.4494977320386151e-01  5.3984146117628351e-01  5.5423648347446908e-01  5.4388759517610696e-01  5.4213259824016702e-01  5.3905315585685576e-01  8.0592329777893534e-01  7.4148396729548904e-01  5.3425723072071263e-01  6.2791254411201858e-01  5.4121264681524972e-01  5.3756517880416443e-01  5.4345846931589525e-01  5.5012981294089913e-01  5.4393832137930864e-01  5.4813230818222369e-01  5.4683071996473198e-01  5.3715858982440956e-01  5.5050991602081278e-01  5.3658393031163321e-01  5.3714340850933606e-01  5.0994065723539694e-01  5.5582781761937561e-01  5.3805466618371234e-01  1.8308533695846249e-07  5.5113645061590688e-01  5.6111222310150111e-01  1.5773884015794337e-01  5.1269225351609049e-01  7.1282543761253692e-01  6.9719971119299395e-01  5.9729125478750345e-01  1.8095076595926760e-01  2.2909205953333167e-01  5.4016927692810646e-01  5.2869124269660139e-01  6.4896441520854919e-01  6.5345057473325574e-01  4.4476827458577861e-01  5.3355903380914471e-01  5.3339363100598058e-01  5.3400721279387120e-01  5.0397650488877244e-01  8.5635467696288814e-01  5.3403379596193790e-01  5.2125542961607108e-01  5.5383624162799738e-01  5.3826379064784313e-01  5.1073616445682990e-01  5.2214416280568177e-01  4.8420885683172893e-01  5.0317208530926905e-01  5.3362631818429496e-01  4.4789316313598704e-01  4.1905908730581959e-01  4.3606739876206857e-01  9.9999999595076394e-01  6.6235636681938992e-02  5.1724088845895433e-01  5.1856515480121868e-01  5.3316680816745099e-01  3.4507495990652404e-01  5.6228710558359896e-01  4.9351391714779153e-01  5.3996597982407424e-01  2.5575039881815778e-06  3.4247824290471401e-01  5.0808632987164348e-01  5.4216472355834255e-01  1.8016305015758962e-04  5.7229173824776580e-01  5.7753590699920121e-01  5.6339089665920083e-01  2.6550013740369238e-01  1.9043781667726861e-01  9.9999774141021514e-01  5.1317659830536888e-01  7.9116675585870222e-01  6.4494351437630826e-01  5.6819036567162740e-01  5.3702055417363892e-01  5.5410381397265329e-01  5.3828509040335792e-01  3.2325389445412311e-01  9.9946719881752666e-01  9.9995884343871910e-01  1.8828485703301531e-02  5.3533135888201344e-01  1.6886906316180339e-05  2.0591227349955046e-03  1.1616185357307002e-01  3.8321577800358281e-01  9.9999953734659108e-01  9.3665766605403955e-01  9.9999676795511694e-01  4.8732422237972967e-01  5.3006736560336221e-01  7.8227196101125340e-01  5.3024173660075236e-01  1.0000002020190939e+00  3.2911474401053842e-01  3.6568319273936167e-01  5.7748485202797162e-01  3.7219579128175934e-01  6.7333757830858454e-01  6.8696446467820516e-01  5.3803661659435698e-01  5.3426261402182218e-01  3.5231721471441874e-01  5.3873731263530877e-01  5.3885152410101345e-01  5.3971897803689717e-01  5.7472789970070870e-01  5.5940769238183596e-01  9.9999999411460538e-01  4.9872215643778950e-01  4.3757428434615597e-01  5.4811619336106132e-01  8.1560888247806018e-01  8.4530443084169193e-01  5.4042300853503977e-01  5.3090666113632812e-01  2.6848516702037827e-07  4.6103796762899751e-01  5.7009021756687173e-01  5.0889699302808966e-01  5.1248418409723251e-01  5.1498869320779472e-01  5.3644042249933610e-01  5.2594670155915257e-01  4.9413838003989646e-01  4.8874420270953567e-01  5.0698726689970752e-01  5.4025925209420744e-01  4.2645663404070161e-01  7.5659040802804101e-01  4.2236714730461411e-01  6.3655506721581412e-01  6.1464823314470363e-01  6.1109828281086420e-01  9.9042477196069989e-01  9.6598047200058945e-01  1.0841716291901945e-02  5.59147457875608