<?xml version="1.0"?>
<VTKFile type="UnstructuredGrid"  version="0.1"  >
<UnstructuredGrid>
<Piece  NumberOfPoints="1079" NumberOfCells="1944">
<Points>
<DataArray  type="Float64"  NumberOfComponents="3"  format="ascii">0.08500000000000001 0.02 0  0.005 0.02 0  0.005 0.03 0  0 0.03 0  0 0 0  0.005 0 0  0.005 0.01 0  0.08500000000000001 0.01 0  0 0.015 0  0 0.0075 0  0 0.0225 0  0.04500000000000001 0.02 0  0.04500000000000001 0.01 0  0.025 0.01 0  0.025 0.02 0  0.065 0.02 0  0.065 0.01 0  0.035 0.02 0  0.035 0.01 0  0.07500000000000001 0.02 0  0.07500000000000001 0.01 0  0.015 0.02 0  0.015 0.01 0  0.05500000000000001 0.01 0  0.05500000000000001 0.02 0  0.07000000000000001 0.01 0  0.07000000000000001 0.02 0  0.05 0.01 0  0.03 0.01 0  0.03 0.02 0  0.04000000000000001 0.01 0  0.01 0.01 0  0.02 0.02 0  0.06 0.015 0  0.08500000000000001 0.015 0  0.05 0.02 0  0.07250000000000001 0.015 0  0.04000000000000001 0.02 0  0.03750000000000001 0.015 0  0.0525 0.015 0  0.02 0.01 0  0.01 0.02 0  0.0275 0.015 0  0.0125 0.015 0  0.08000000000000002 0.01 0  0.08000000000000002 0.02 0  0.0325 0.014375 0  0.04291666666666667 0.015 0  0.065 0.015 0  0.005 0.005 0  0.005 0.015 0  0.02208333333333334 0.015 0  0.07791666666666668 0.015 0  0.005 0.025 0  0.06 0.01 0  0.06 0.02 0  0.01729166666666667 0.01572916666666667 0  0.04770833333333334 0.01427083333333334 0  0.06875000000000001 0.01625 0  0.008750000000000001 0.01625 0  0.05625000000000001 0.01625 0  0 0.00375 0  0 0.01875 0  0 0.01125 0  0 0.02625 0  0.08145833333333334 0.01354166666666667 0  0.0675 0.01 0  0.0075 0.0125 0  0.0625 0.0175 0  0.0575 0.0125 0  0.0625 0.0125 0  0.08207465277777778 0.01707465277777778 0  0.06767857142857144 0.01321428571428571 0  0.0175 0.01 0  0.01875 0.01291382575757576 0  0.0475 0.02 0  0.04564168086314595 0.01679860519591141 0  0.00296875 0.0125 0  0.0025 0.03 0  0.0025 0 0  0.00296875 0.0175 0  0.01521990740740741 0.0132349537037037 0  0.0497800925925926 0.0167650462962963 0  0.0325 0.02 0  0.03474264705882353 0.01674632352941176 0  0.03750000000000001 0.02 0  0.03025735294117647 0.01674632352941176 0  0.0275 0.02 0  0.0525 0.02 0  0.0125 0.01 0  0.04020833333333334 0.01322916666666667 0  0.03750000000000001 0.01 0  0.0225 0.02 0  0.02479166666666667 0.01677083333333333 0  0.07520833333333335 0.01322916666666667 0  0.07250000000000001 0.01 0  0.07520833333333335 0.01677083333333334 0  0.07250000000000001 0.02 0  0.04020833333333334 0.01677083333333333 0  0.0225 0.01 0  0.02375 0.01262152777777778 0  0.04250000000000001 0.02 0  0.04250000000000001 0.01 0  0.07750000000000001 0.01 0  0.07750000000000001 0.02 0  0.05036151960784314 0.01294424019607843 0  0.0705560064935065 0.01284699675324675 0  0.05458333333333334 0.01291666666666666 0  0.0021875 0.024375 0  0.005 0.0275 0  0.01125 0.0175 0  0.01463848039215686 0.01705575980392157 0  0.01 0.01375 0  0.03625 0.0125 0  0.0021875 0.009375 0  0.05375000000000001 0.0175 0  0.07125000000000001 0.0175 0  0.005 0.0025 0  0.0021875 0.005625 0  0.02655220103578155 0.01234889948210923 0  0.002187499999999999 0.020625 0  0.02979166666666667 0.01302083333333333 0  0.0525 0.01 0  0.07895833333333334 0.0125 0  0.01994277885235332 0.01704213007736944 0  0.07934656179076068 0.01733823814273861 0  0.04505722114764669 0.01295786992263056 0  0.06625 0.0175 0  0.006250000000000001 0.0175 0  0.05750000000000001 0.02 0  0.05875000000000001 0.0175 0  0.005 0.0225 0  0.005 0.0075 0  0.002375 0.027375 0  0.002375 0.002625000000000001 0  0.0475 0.01 0  0.0175 0.02 0  0.0325 0.01 0  0.03375 0.0121875 0  0.04261299435028249 0.01749205508474576 0  0.08500000000000001 0.0125 0  0.08250000000000002 0.01 0  0.02121963399965531 0.01224824108143494 0  0.0675 0.02 0  0.0125 0.02 0  0.02720152243589744 0.0175 0  0.03715165441176471 0.0175 0  0.08500000000000001 0.0175 0  0.0275 0.01 0  0.0025 0.0149560546875 0  0.0075 0.01 0  0.0075 0.02 0  0.06526785714285716 0.0125 0  0.01281031447005516 0.0125 0  0.0625 0.015 0  0.06 0.0125 0  0.05750000000000001 0.01 0  0.0625 0.02 0  0.0625 0.01 0  0.08250000000000002 0.02 0  0.04260103740101855 0.01252623201412851 0  0.02240052247582197 0.01750164767101344 0  0.07293583459427785 0.01238479732953041 0  0.005234374999999999 0.012265625 0  0.03528131980640358 0.01454684009679821 0  0.0325 0.01760027210036557 0  0.02532593822924343 0.01428227733767297 0  0.08009952069819683 0.01527145502895417 0  0.01987282359856536 0.01482587683689801 0  0.04828232595121382 0.01210233572595705 0  0.01671767404878618 0.01789766427404295 0  0.05125 0.01829007549029352 0  0.05247215456215357 0.01288882122882024 0  0.07338729919678716 0.01799385040160642 0  0.03838729919678716 0.01200614959839357 0  0.07717482110586968 0.01780301674207099 0  0.04771860040890012 0.01773306039388322 0  0.03125 0.01160380747126437 0  0.06875000000000001 0.01154265873015873 0  0.07625000000000001 0.01154065860215054 0  0.01625 0.01153997817696946 0  0.068125 0.018125 0  0.05437500000000001 0.015625 0  0.066875 0.015625 0  0.07039794950204951 0.01494384850614853 0  0.05687500000000001 0.018125 0  0.006875 0.015625 0  0.008749999999999999 0.01833333333333333 0  0.010625 0.015625 0  0.05625 0.01416666666666667 0  0.05812500000000001 0.015625 0  0.0449088595298192 0.01494528408816316 0  0 0.016875 0  0 0.013125 0  0.04962452342047931 0.01478673066448802 0  0.0153754765795207 0.01521326933551198 0  0.0771774565913315 0.01322498191305479 0  0.01857756431135545 0.01840228599899994 0  0.04642243568864456 0.01159771400100006 0  0.08125000000000002 0.01155637254901961 0  0.08317650804863432 0.0118234919513657 0  0.08288217288011697 0.01511353252923977 0  0.02837253504384828 0.0117177464035174 0  0.03896057962520807 0.01831163685754031 0  0.01125 0.0114244162490927 0  0.00935910490099115 0.0119067901980177 0  0.02946078431372549 0.01495404411764706 0  0.02875 0.0185829434466942 0  0.002968749999999999 0.0225 0  0.064375 0.016875 0  0.00296875 0.0075 0  0 0.001875 0  0 0.005625 0  0 0.009375 0  0 0.020625 0  0 0.024375 0  0 0.028125 0  0.06062500000000001 0.01812500000000001 0  0.008303571428571429 0.01446428571428572 0  0.01375 0.01865917058160413 0  0.05137790313978056 0.01143372888932909 0  0.04125000000000001 0.01131513063942604 0  0.04101690263896279 0.01844430285842771 0  0.02399563533148224 0.01844349395710867 0  0.08125000000000002 0.01868815426145731 0  0.05354684380692146 0.01145463537600848 0  0.01699195823639423 0.01315138909884649 0  0.07598357371794873 0.015 0  0.04098357371794872 0.015 0  0.003744047619047619 0.00375 0  0.003344630281690141 0.02580853873239437 0  0.04625 0.0187354532243972 0  0.06388392857142858 0.01138392857142858 0  0.06375 0.01375 0  0.05875 0.01375 0  0.06375 0.02 0  0.00622802734375 0.01372802734375 0  0.003630681818181818 0.001369318181818182 0  0.003630681818181818 0.02863068181818182 0  0.06125 0.01625 0  0.06125 0.01125 0  0.05625000000000001 0.01 0  0.05875 0.01125 0  0.06125 0.01375 0  0.08337864763241221 0.0183786476324122 0  0.05213634138653413 0.01674432930673294 0  0.04375000000000001 0.01 0  0.07424178685897437 0.01529258578431373 0  0.03924178685897436 0.01529258578431372 0  0.03410139294454583 0.01843406022904556 0  0.03089860705545417 0.01843406022904556 0  0.02094160484316717 0.01850229584291991 0  0.04375000000000001 0.02 0  0.04437042160883325 0.01820701498672512 0  0.04816311705429156 0.01600061344661149 0  0.07151224904251052 0.0114127410511319 0  0.04395528506193162 0.01639387970349481 0  0.0128750358694518 0.0167500179347259 0  0.02855808448399799 0.01642839899839741 0  0.02812690373330794 0.01340955081400569 0  0.08358500641945087 0.01351822349116885 0  0.05590277777777778 0.01173611111111111 0  0.06683110430364615 0.01164926404662283 0  0.02573206694914602 0.01842532451809762 0  0.01438126661842046 0.01166701193099454 0  0.02384283211216029 0.01526549696571563 0  0.03625 0.02 0  0.004609375000000001 0.0182421875 0  0.003398437500000001 0.01943359375 0  0.001728307845744682 0.01894718251329787 0  0.004377805359085963 0.01656966216675735 0  0.04649673309852075 0.0153889662370871 0  0.03615513600614297 0.01592654988586041 0  0.03316985071935832 0.01598763605018279 0  0.03110111603888768 0.01529816275177977 0  0.01370614113484869 0.0138804542047638 0  0.04930041102671841 0.01842260568883502 0  0.07875000000000001 0.02 0  0.0745395359848485 0.01165101111925709 0  0.03860755698543604 0.01373741558556884 0  0.02605038706571737 0.01573944002207753 0  0.07559826163500957 0.01841729376139847 0  0.04437500000000001 0.01149157931286774 0  0.06874116707361365 0.01454618473032123 0  0.003761917372881356 0.0239307468220339 0  0.003984374999999999 0.01125 0  0.003768503289473684 0.01392539576480263 0  0.001796875 0.0111328125 0  0.003761917372881356 0.008930746822033899 0  0.005 0.00625 0  0.003761917372881355 0.0210692531779661 0  0.06633928571428571 0.01410714285714285 0  0.006484375 0.01125 0  0.08364120589325512 0.01657288979763549 0  0.03576267476503373 0.0184116442851204 0  0.07370875846579374 0.0137848203678562 0  0.06964285714285715 0.01758928571428571 0  0.05520833333333334 0.01833333333333333 0  0.06491071428571429 0.01839285714285714 0  0.0510098951944636 0.01559941474766356 0  0.01786087179886325 0.0115702210443714 0  0.01972197383235524 0.01160576093166696 0  0.01804697593127788 0.01433503795474974 0  0.001644074528704677 0.01642892723865279 0  0.00125 0.03 0  0.001497685185185185 0.001267746913580247 0  0.07315451164202422 0.01643443118912983 0  0.001233906745910645 0.0140625 0  0.01162635071030191 0.01362229857939618 0  0.01528023503083844 0.01845923557506155 0  0.06625 0.02 0  0.07695012019230771 0.01624387078484555 0  0.03139091092855769 0.01320776147621796 0  0.03857339107781042 0.01675295051810485 0  0.001754993120977522 0.02590789105493891 0  0.002288757784711197 0.00412546923654445 0  0.07914382119690884 0.01404430049871201 0  0.001391810103286306 0.01257390899021902 0  0.0419501201923077 0.01614675005432421 0  0.001484375 0.007018229166666667 0  0.001484375 0.02201822916666666 0  0.048
[...]
<PointData  Scalars="concentration"> 
<DataArray  type="Float64"  Name="concentration"  format="ascii">9.6321596104723173e-01  1.0068467629134292e+00  9.9999999999999867e-01  9.9999999999999978e-01  1.9645539548134404e-20  6.8774404664030250e-21  -1.4348965120031403e-02  6.8700412535296740e-02  6.9183648767334538e-01  -2.4394709451843323e-03  9.9642499680116403e-01  1.0030869143886454e+00  -1.0898358141129666e-03  4.1955631845880503e-04  9.9925244729634433e-01  9.9081046744813317e-01  1.8355253909532170e-02  1.0008170967183334e+00  -4.2897319250590258e-04  9.8287957675955107e-01  3.9764981675318237e-02  1.0007467759405286e+00  -3.3933336188586155e-03  1.1414016361328711e-02  9.9922322136654884e-01  3.6970750065130516e-02  9.9127893104663523e-01  9.3397801815843749e-03  -3.1329226551812571e-03  9.9866878266626191e-01  -7.7705972191894441e-04  1.8357842161464038e-03  1.0005548473736943e+00  5.7093163828742866e-01  5.5418739225653713e-01  9.9940751214497658e-01  5.5494440913829679e-01  1.0045365432587854e+00  5.8438700732899562e-01  5.6877786542643904e-01  9.4808171240068264e-03  9.9764695817749460e-01  6.0206814751365689e-01  6.4124216966537839e-01  5.0577044833533917e-02  9.7456954623305936e-01  4.1032882305576640e-01  5.7329186151740519e-01  5.5960145080927481e-01  -1.3146246104638601e-04  7.6742728722955966e-01  6.1814673831047384e-01  5.5616079799706941e-01  9.9954531601884289e-01  2.2207655876549298e-02  9.9504844717962659e-01  8.5162622750269779e-01  4.0871728041214489e-01  7.6213769590412728e-01  1.0474659588917867e+00  7.9547090760069761e-01  1.1839580874450720e-04  1.0041960649546049e+00  -1.5985016513320197e-02  1.0002160447827106e+00  3.1437039869029743e-01  2.5332078689998181e-02  -1.3331970574287753e-02  9.2140202210161193e-01  1.2572077839282680e-01  1.4054727071233680e-01  8.4551405342468655e-01  2.4613922568865612e-01  2.9699706892680768e-03  4.8266651709483958e-02  9.9987714059254340e-01  8.8921977594752344e-01  1.9891400241536617e-02  9.9999999999999867e-01  9.8663621219044316e-22  9.8944560504553258e-01  4.2861271425279589e-02  8.7675192382434386e-01  1.0014138500749046e+00  9.1814694154212906e-01  9.9777820836569397e-01  9.4271613059141057e-01  1.0021902869692265e+00  9.9710202799716674e-01  -3.8209578896472936e-03  1.8361865942640584e-01  2.5278411968866952e-03  1.0025249985644038e+00  9.6092465037264829e-01  2.5724893038103525e-01  2.8349385153791432e-02  8.2072298907641628e-01  9.8644086081819393e-01  9.1030641431553250e-01  -5.2925195684679176e-03  2.2663736641196884e-02  1.0051518473899217e+00  -4.0625284221327768e-03  3.3663243070220651e-02  9.8749655230717115e-01  1.7282523972024769e-01  1.9568583741881335e-01  1.7356499339592912e-01  1.0026964955216962e+00  1.0002387362324365e+00  1.0009122772943186e+00  1.0003298548505575e+00  9.2019440575635422e-02  6.3852968041000574e-02  5.6694439704479604e-03  9.3830813309853867e-01  9.1045311554658692e-01  1.1597339501064085e-03  2.9950077944965159e-04  1.3369842593122648e-02  9.9154631266682225e-01  1.1126850856366981e-01  9.3328819794526521e-03  1.6927836395095222e-01  1.0072668133054277e+00  8.7835609049986252e-01  1.5787421001089941e-01  9.1571495061161257e-01  9.6645994206631902e-01  9.9452072731520402e-01  9.3077920387588853e-01  9.9940020281837638e-01  1.7711817099160447e-03  1.0006252583734354e+00  -2.0731842261703678e-04  4.9308778732677439e-03  9.9361693715151089e-01  -1.0028774738498404e-02  3.0113290237673600e-02  9.7042891771338868e-01  1.9133258862904215e-01  5.3211595450614005e-02  -1.0544238518797671e-02  9.8801078776632756e-01  9.9776604373996369e-01  9.9834866386233967e-01  9.6768734426054681e-01  8.7384856248113107e-01  -2.9872953678794730e-03  6.9763639759951179e-01  1.9160002032873012e-03  1.0005055627138990e+00  1.4476223068887797e-01  -1.4157694639558639e-02  5.5828700263680753e-01  1.4302894688691162e-01  1.1534593858087369e-02  9.9383692315459682e-01  1.4839606749857279e-02  9.7788491479110828e-01  9.4028703655486462e-02  1.0083268084910710e+00  1.4390921121100600e-01  -1.0828889170903033e-02  4.6685075480691618e-01  9.8928076439674606e-01  3.7405017279581254e-01  6.0113364308442996e-01  5.5958160212697650e-01  6.1935350562485510e-02  1.0023604972026128e+00  9.8341306121922123e-01  1.6615432464189317e-01  9.3933775320346757e-01  4.7712704061753895e-02  9.2336352148885648e-01  9.6318139342334197e-01  5.3328652987937606e-03  6.8998065568289468e-02  8.1431441582358363e-02  -5.5985758359628109e-03  9.4702237436423320e-01  6.9525255158798949e-01  6.7558813326342892e-01  5.4932955830349228e-01  9.6582960570710530e-01  9.3729750855331118e-01  1.0068883350823796e+00  8.9630779923032078e-01  3.9566246772709629e-01  6.9363234014832464e-01  5.6138526402010747e-01  1.0040948635221982e+00  1.3236730194592081e-02  5.2454432799219108e-01  7.2077061888613803e-01  2.5849348890326224e-01  9.9358506784561684e-01  2.9958312443636777e-02  9.5729785321490402e-02  1.2057844355539865e-01  5.7300379889132824e-01  -4.3676419210549001e-03  9.9396861489727528e-01  6.7597110081504524e-03  1.4902790016427168e-02  5.8638153380554026e-01  1.0035637688563679e+00  1.0010452579259534e+00  8.5818798899167248e-01  1.1011345434815370e-03  -4.1119473086280339e-05  1.1908876701054053e-03  -1.7848943024951602e-03  9.9283459076806357e-01  9.9879133231129325e-01  1.0003695631541067e+00  9.6381113222076165e-01  3.3278950478015290e-01  9.9830471818519950e-01  2.9436474325625381e-02  9.2969300322813548e-03  1.0003584071118010e+00  1.0045554369900933e+00  9.5848165467990054e-01  3.5961958956585147e-02  4.5268069069235237e-02  5.5845173708537488e-01  5.7582949906346970e-01  3.8045326236270957e-04  9.9926429867052313e-01  9.9517232433344371e-01  4.6548228050351872e-02  3.2172864596860817e-01  3.2697437418822439e-01  9.9182830612559225e-01  -4.1060862242459507e-02  -8.9121556183179715e-05  1.0000910707704660e+00  7.7838052239685718e-01  4.0081904450647375e-02  1.2386075308607308e-02  3.5561079056833353e-02  3.2511843749659303e-01  9.3948873481972084e-01  8.7178605222002326e-01  7.3427804781320857e-04  6.0674176170592609e-01  6.5289284906606870e-01  9.9948225044939154e-01  1.0001882628682677e+00  1.0008626207305522e+00  1.0004971595488759e+00  9.8464469851788849e-01  7.6588084425475811e-01  6.6763547149761918e-02  8.5279017167221538e-01  1.0127168988447686e+00  9.0861090077580942e-01  1.7505623403379056e-01  3.2154022508803620e-01  5.7957300659756142e-02  7.6885282229514407e-02  1.0019372681691758e+00  -5.3476663985977512e-03  6.7825989791316710e-01  1.0038073174500208e+00  9.9284870993350371e-01  9.9410368067917909e-01  9.8853457741060191e-01  9.7128283105628899e-01  6.6267623647744700e-01  7.9722434145300103e-01  8.2477994620717876e-01  6.7407268486194982e-01  1.6012705807379007e-01  9.8560531566809728e-01  9.7726004242702136e-01  8.5336525032664201e-02  2.7249293047072903e-01  7.9919990705057475e-01  9.5532681884155146e-01  2.4006618578270789e-02  4.7398150232099956e-01  9.9939489721546648e-01  -7.5615180628770809e-03  3.0045920971723674e-02  8.0309704348157599e-03  1.6683395740457836e-03  -2.7076813020205852e-03  1.0009134385347545e+00  3.9124490970290388e-01  -1.4047948697386896e-02  7.7829625710986305e-01  1.0015930732811533e+00  3.4245872218276069e-01  9.1786476363504010e-01  9.8021631867194636e-01  9.7044267592477984e-01  6.9300011334717904e-01  -4.7380090950658914e-03  -9.5261280849578359e-03  3.8801822109346329e-01  9.6218566630029190e-01  9.9999999999999956e-01  -8.1871382876724821e-05  7.8150402227748139e-01  1.9188191988017776e-02  8.0650868499385367e-02  1.0023840418326389e+00  9.9245997105101003e-01  7.5622042609387341e-01  1.5054312303426537e-01  9.1220293178141554e-01  1.0001574082417424e+00  -4.3280453729184140e-05  3.9166608221052457e-01  -2.4980760807231678e-02  8.2031329410056120e-01  1.4702093350272042e-03  1.0034574028076313e+00  2.4383504908860429e-01  3.1231515134454907e-02  1.0056072326757992e+00  3.4852168744675210e-01  1.8799743484995191e-01  1.0175013353829663e+00  3.1654384644902334e-01  8.7153250853920772e-01  3.0664315915402290e-01  3.4516658944822148e-01  1.7266324133140606e-02  8.6015955604185301e-01  2.0988956487097638e-01  9.7834941736025541e-02  -1.5895798557709818e-02  -2.5618606759102440e-03  1.3976722827215816e-03  -2.7492067069400908e-03  2.1292209974096032e-01  3.7383096475820771e-01  7.7182204631665641e-02  9.9969825118839550e-01  7.9849255836710075e-04  2.2730563952207019e-03  -1.6981263627608722e-03  9.9984860829077704e-01  2.4234380877806880e-01  1.3688665513807408e-01  9.7349559876696623e-01  8.5327597537989375e-01  8.8151533651336156e-01  9.8051889171910545e-01  9.6822881255581794e-01  9.9853343045968290e-01  1.3029560461100901e-02  -2.9200279978722609e-03  2.2224322898547640e-02  9.9973580292486486e-01  9.8062932278671933e-01  8.1819129492256859e-01  7.7593785579602781e-01  9.8756500722964979e-01  9.9042178714808482e-01  3.0473388082894770e-01  9.9925530328345780e-01  9.8474865749615526e-01  1.0010398687223983e+00  1.0020733235309969e+00  1.0004021203751778e+00  7.3011690064296297e-01  8.6455926270845507e-01  6.6764984869687827e-01  5.1868711754616992e-01  -3.3757192248690206e-02  6.5353593918180880e-02  4.1281279706981738e-01  8.7997242288959832e-01  9.6813178664824084e-01  7.1910284406778346e-01  1.3589623217177737e-04  9.9744779569980646e-01  1.8869998577401723e-01  4.8862136099873880e-02  7.9620460118732320e-02  1.0012504795592678e+00  6.5233567714575785e-04  1.0028045248014195e+00  8.8857590453937518e-01  7.6397699354832194e-01  1.0624819392326958e+00  4.4497017389685959e-03  -5.0501921416897895e-03  9.5629223492072524e-01  -7.5024724093299411e-03  7.0748767999805701e-02  9.9444374061082774e-01  6.7918176820188381e-01  9.8934103729623890e-01  9.9506993368885488e-01  2.7596747292005486e-01  8.7353853646090207e-01  -3.6842432260212249e-02  1.3119776194881186e-01  9.9993625054625268e-01  -2.3894864941653577e-04  9.9993756288076541e-01  3.4515612311185245e-02  2.9703658255710430e-01  3.4442200801763251e-01  -7.2202622729727649e-03  7.1312426420667729e-01  9.9657278162951834e-01  -2.8769203494727097e-03  1.0471049892232742e+00  9.4649077025385067e-02  5.6385506692925982e-02  9.8112918755582079e-01  9.8189064266021953e-01  9.8797112437612622e-01  -1.4301926446036600e-02  9.7713225931248093e-01  1.2267180949173816e-01  1.2037060682070309e-02  2.9682759857194586e-03  2.2318161719224305e-02  7.9037152085297324e-01  3.1977860544827968e-01  -1.3408747558713377e-03  8.7142912923697333e-03  9.9885583662533606e-01  8.4734391081794147e-01  9.2512024443681706e-01  5.8721925454761459e-02  2.8898738697975264e-03  8.9062776083998818e-01  9.7766503394112581e-01  9.9832451276669287e-01  9.5742653339864314e-01  9.8217322833128695e-01  4.5891817925393111e-02  3.2621376960314979e-01  1.9279705308696021e-01  -1.7669241612645113e-03  8.0921855872623738e-01  -8.3192923291505599e-02  1.0052768816401769e+00  9.9824812776222471e-01  9.8768873447034211e-01  9.7776133674543997e-01  9.9700216364615746e-01  9.9624979620728316e-01  2.4702597334365643e-02  9.9934297586670640e-01  7.8137711910500285e-01  2.7051765692258024e-02  2.8903064876251772e-02  8.3661302416827912e-03  9.7108012751337380e-01  1.0017389757687163e+00  3.6654338787022000e-03  -4.1402637445577531e-03  9.9912938968667808e-01  5.0520678034144020e-02  4.4988852303669655e-02  3.0287730031292238e-02  1.0016446587825139e+00  9.9694345302479925e-01  1.0001190008457288e+00  7.3830862265091701e-01  3.3643206418720206e-02  4.0143710453964983e-02  1.0019385642709939e+00  -7.2503568685653155e-03  9.9702246114838522e-01  1.0327692453548293e-03  2.0193968165399465e-03  -1.9969677925709534e-03  -6.9651215071995067e-20  -1.0477625658056234e-04  4.5305415460346619e-04  1.0000000000000013e+00  -2.7593736597719110e-20  1.3949025947484909e-02  1.0198314124892409e+00  1.0048077105549962e+00  3.5513395063058095e-01  9.9808141557786145e-01  3.2566472504751970e-01  1.0004077561216951e+00  1.0013475790412418e+00  4.7130173406418601e-03  1.0003968861979096e+00  3.2881736914984476e-03  1.0010112506369027e+00  9.4817309231487468e-01  1.0002826925820680e+00  9.9046108746073902e-01  5.5837288458571732e-01  3.1085331290219581e-01  1.3013820966477554e-01  3.6279553949109512e-02  1.0534773128614226e-02  1.3703346518321999e-01  1.1535461727877618e-02  1.0014046976061444e+00  2.5597421650190761e-04  1.0028586632694299e+00  9.7258714836038929e-01  9.3923984214437914e-02  8.4302157920997289e-01  9.9790493557580195e-01  9.4703102275600304e-01  3.9822176286228217e-01  -5.5389199297133956e-02  -5.2423109367752763e-03  1.8116758543274067e-01  4.5422382571429598e-01  9.7029299723526830e-01  2.2640893065137341e-01  1.0504324906543328e-01  1.9306399408498393e-01  6.0634737646710024e-01  9.9863502797465087e-01  9.1371508861290018e-01  1.0004675574563211e+00  9.7578690346216190e-01  9.6288898508105025e-01  7.3584855295890988e-04  9.6986987749929188e-01  -3.6692502203983343e-04  1.0068313394414881e+00  9.8861204919267998e-01  6.0731429443878360e-01  3.5127845566673083e-01  2.5912363234323787e-02  1.5842321794497344e-01  3.6055225737355440e-01  1.0008900877336562e+00  9.1178845585884072e-01  8.2369753141772684e-01  9.9902520486943680e-01  -7.4465151700071255e-03  1.8388656756137145e-01  4.2770912190770660e-01  3.8496051189472424e-01  9.6963799784918429e-03  2.7903071957022796e-02  2.7386933405840377e-02  9.4216049374631150e-01  7.4480486402350476e-01  3.9280069854598193e-01  9.8570242267448005e-01  7.7824335437664893e-01  9.3530334776629920e-01  9.3053967406005644e-01  1.5466778555395669e-03  9.1955912893395519e-01  1.0048597073905325e+00  1.9499935255965917e-01  1.0426496416924965e-02  1.0079911971024458e+00  3.1518915874121262e-01  4.0005792577352728e-01  9.6572607115996612e-01  1.0034319263169891e+00  -1.9939681978072533e-02  7.7495620564392298e-01  8.6509807918745141e-01  4.9170725974657886e-01  8.7989419659656787e-01  1.9581967831730238e-01  3.7752174195522092e-01  9.9978556830741749e-01  6.3409453364841417e-01  9.1055448429243557e-01  9.5959377779051627e-02  6.1897608954139971e-01  -8.4764936970927185e-03  -9.0987964944691394e-04  1.7649802316556604e-01  4.9175058248633274e-02  -6.3151992824009694e-03  1.0043616806277709e+00  9.9810817620433701e-01  9.3089084140397926e-01  1.0010937198397747e+00  4.4444279909788648e-01  1.0124215914309129e-02  5.0974546864736092e-01  1.3695876377365691e-04  -4.6147228869930518e-03  9.7574166139326779e-01  1.4626408746945693e-01  2.8490638744577806e-01  9.7050787841366359e-01  -4.4987104758520908e-03  1.4058531013793419e-02  7.3205489509672073e-01  4.9112086747721079e-01  9.9639819453015510e-01  6.9197568728722358e-01  1.6318087231374731e-01  1.6247124487512288e-01  5.9141981208941175e-03  6.3476880867218832e-01  5.5022375201330787e-01  1.0045928881447883e+00  -2.2002516074634930e-03  -5.0615210176987229e-03  9.9575788923627273e-01  1.9512679321386076e-01  9.8477086461294561e-01  9.8725164328275128e-01  1.0000232266582796e+00  9.9740203954213758e-01  9.8674649682577786e-01  7.7501552922972727e-01  3.7238640477709800e-01  7.3439204839974304e-01  1.1948827947577774e-01  3.4063304385760501e-01  3.6907593871672723e-02  5.4775918271744806e-01  9.9430121648326963e-01  9.8354524753618910e-01  9.9971695207657685e-01  1.8757595892115260e-04  9.9914730102828175e-01  9.9993325689281942e-01  5.5988999779163373e-01  5.0612554045454328e-01  1.0041076047175466e+00  3.2447587678970807e-01  2.7965347867286733e-01  9.9924631423108046e-01  1.0022333626039595e+00  9.3633736424532741e-03  1.0003490471665153e+00  -9.1241854728588460e-04  2.8851327325761979e-02  -3.9181365646291854e-03  9.9824495878257302e-01  9.9700614150691746e-01  -3.3603336322575524e-03  9.8194949757992267e-01  9.9621717381951214e-01  9.9399774171453781e-01  4.0785614608270609e-01  7.9939486320038988e-01  9.9938798242725091e-01  2.5285858537032065e-03  -6.2207066498531230e-03  -5.7600421215158928e-03  1.0090514618984019e+00  1.0087334155556684e+00  5.9568413534842581e-02  3.5553788054265428e-01  7.7200686583209321e-01  1.8054621734784568e-01  5.6672056093522230e-02  5.9903159730989905e-02  5.4354518745148850e-01  3.3072652538405362e-01  7.3657911024014344e-01  1.1370887092044101e-02  1.4309295640368075e-01  3.7928259121052958e-02  9.9872297268101318e-01  7.2115950051795275e-01  9.5415317920921583e-01  6.9603354507753878e-01  4.3920562725816154e-01  5.4671524668836832e-02  5.2027800961340430e-02  1.3408930052622328e-01  1.7144965825345210e-01  -8.6494857929006626e-04  -7.6485884259383840e-03  2.9420083081143646e-03  9.7913257290257216e-01  9.8657205674793491e-01  8.8555859364624689e-01  8.4663267467510139e-01  1.0110825668797974e+00  9.8446591275209716e-01  7.2606467275773956e-01  9.9504462149158135e-01  9.3324925429211425e-01  8.8882545814439884e-01  6.3076129311701568e-01  1.0568120101870715e+00  1.0174246002639111e+00  4.6936030238980642e-01  9.1194641640789031e-01  8.1149166829114050e-01  6.1550150607086263e-01  8.9357893570093372e-01  9.5173647564151853e-01  8.2022943631535772e-01  9.3860551730444253e-01  9.3383966394060214e-01  5.8593863339499686e-01  9.9026439227792928e-01  5.6058725198741499e-01  6.5437974759175910e-01  8.6726550016810636e-02  9.9270789928801584e-01  7.2534635284241800e-01  -1.3429382965670604e-05  6.9740876383650763e-01  7.6283114870514457e-01  -2.1240256668674166e-03  4.0239306036601485e-01  1.0001940468887272e+00  1.0134132640668840e+00  9.9287648896711622e-01  5.9061937982252755e-03  3.6211441781540681e-04  9.3513073373169753e-01  3.5093509928993599e-02  9.9961482176827898e-01  1.0029814464505349e+00  -5.9455843109598545e-03  1.1370813050846794e-01  6.1313639389648296e-02  1.3636211795033251e-01  5.6655068612714216e-02  9.9878274389140453e-01  5.4106374437035754e-01  3.7042117723572060e-01  8.0062466380821251e-01  7.2336856177866837e-01  3.1837527294653178e-01  3.4347636628875333e-01  1.7999296042089249e-03  9.0308945273752158e-03  7.7195267335931309e-02  2.5257354187538557e-02  -1.7449157511242888e-04  1.2931522207392845e-02  1.0003627873265382e+00  1.3051680116330485e-02  1.6532391463750844e-02  2.1111356294423178e-02  1.7151484306631823e-01  -7.4878479513736662e-03  8.1518574837832125e-01  3.9270985333654596e-01  9.4292367548136968e-01  -5.1103770696767092e-04  -6.5582679907114595e-03  4.2215258302109959e-01  6.8734476182521931e-01  -4.1422341350162234e-04  9.8221546203308763e-01  9.9953886106959489e-01  9.4125553902250525e-01  -3.8710139290869819e-02  6.9240970996102113e-04  1.0011123493496350e+00  4.8485583783709946e-01  9.9897193769298487e-01  9.9923726517750266e-01  9.9440360233550995e-01  6.0681006478185195e-01  9.4494453311832693e-01  7.8281804618339290e-01  1.6178861688837182e-03  9.9855559756607970e-01  1.0014566356899037e+00  1.3074172547583432e-02  5.0022556205881163e-01  -3.6380468329634666e-04  -1.0204293719467614e-03  2.6101186960277779e-02  1.5177515020193932e-01  1.0000133271661285e+00  9.8629054649434234e-01  1.0017089239375838e+00  3.0699332655451517e-01  1.1364617726776384e-01  1.0043530774104732e+00  5.2047782433153826e-02  9.9890363073872912e-01  -2.8061953974296686e-03  -6.7968616522698019e-03  9.8061524986865889e-01  2.4024972009302720e-03  1.0069375999966281e+00  9.9759333459957666e-01  6.9981445303281153e-01  2.6395714585078045e-01  -4.3077097375633427e-03  8.7820254607050985e-01  8.7993924958383130e-01  9.6589369691011440e-01  9.5352237665012474e-01  8.3238172109536324e-01  9.9920386617674284e-01  1.8444836257099237e-01  2.5241300838677727e-01  7.2416063141319820e-01  9.9712385078840315e-01  9.9931861499850916e-01  8.6844132384608963e-01  4.9184581146006746e-02  -9.0233219772130118e-04  1.1694470879924695e-01  7.4637692370673592e-01  9.6740235063527150e-02  1.4320380181702046e-02  7.8434054706360667e-02  5.4289383063871832e-01  2.1019099960243548e-01  2.5422333276950544e-02  2.9443698209239881e-03  1.3006792544100674e-02  9.7298287945918172e-01  -4.8261875624875192e-03  1.0181061820691852e+00  1.1165258079092293e-01  1.0012722496570170e+00  1.0020980069326091e+00  1.0000364965407824e+00  9.9543