<?xml version="1.0"?>
<VTKFile type="UnstructuredGrid"  version="0.1"  >
<UnstructuredGrid>
<Piece  NumberOfPoints="1079" NumberOfCells="1944">
<Points>
<DataArray  type="Float64"  NumberOfComponents="3"  format="ascii">0.08500000000000001 0.02 0  0.005 0.02 0  0.005 0.03 0  0 0.03 0  0 0 0  0.005 0 0  0.005 0.01 0  0.08500000000000001 0.01 0  0 0.015 0  0 0.0075 0  0 0.0225 0  0.04500000000000001 0.02 0  0.04500000000000001 0.01 0  0.025 0.01 0  0.025 0.02 0  0.065 0.02 0  0.065 0.01 0  0.035 0.02 0  0.035 0.01 0  0.07500000000000001 0.02 0  0.07500000000000001 0.01 0  0.015 0.02 0  0.015 0.01 0  0.05500000000000001 0.01 0  0.05500000000000001 0.02 0  0.07000000000000001 0.01 0  0.07000000000000001 0.02 0  0.05 0.01 0  0.03 0.01 0  0.03 0.02 0  0.04000000000000001 0.01 0  0.01 0.01 0  0.02 0.02 0  0.06 0.015 0  0.08500000000000001 0.015 0  0.05 0.02 0  0.07250000000000001 0.015 0  0.04000000000000001 0.02 0  0.03750000000000001 0.015 0  0.0525 0.015 0  0.02 0.01 0  0.01 0.02 0  0.0275 0.015 0  0.0125 0.015 0  0.08000000000000002 0.01 0  0.08000000000000002 0.02 0  0.0325 0.014375 0  0.04291666666666667 0.015 0  0.065 0.015 0  0.005 0.005 0  0.005 0.015 0  0.02208333333333334 0.015 0  0.07791666666666668 0.015 0  0.005 0.025 0  0.06 0.01 0  0.06 0.02 0  0.01729166666666667 0.01572916666666667 0  0.04770833333333334 0.01427083333333334 0  0.06875000000000001 0.01625 0  0.008750000000000001 0.01625 0  0.05625000000000001 0.01625 0  0 0.00375 0  0 0.01875 0  0 0.01125 0  0 0.02625 0  0.08145833333333334 0.01354166666666667 0  0.0675 0.01 0  0.0075 0.0125 0  0.0625 0.0175 0  0.0575 0.0125 0  0.0625 0.0125 0  0.08207465277777778 0.01707465277777778 0  0.06767857142857144 0.01321428571428571 0  0.0175 0.01 0  0.01875 0.01291382575757576 0  0.0475 0.02 0  0.04564168086314595 0.01679860519591141 0  0.00296875 0.0125 0  0.0025 0.03 0  0.0025 0 0  0.00296875 0.0175 0  0.01521990740740741 0.0132349537037037 0  0.0497800925925926 0.0167650462962963 0  0.0325 0.02 0  0.03474264705882353 0.01674632352941176 0  0.03750000000000001 0.02 0  0.03025735294117647 0.01674632352941176 0  0.0275 0.02 0  0.0525 0.02 0  0.0125 0.01 0  0.04020833333333334 0.01322916666666667 0  0.03750000000000001 0.01 0  0.0225 0.02 0  0.02479166666666667 0.01677083333333333 0  0.07520833333333335 0.01322916666666667 0  0.07250000000000001 0.01 0  0.07520833333333335 0.01677083333333334 0  0.07250000000000001 0.02 0  0.04020833333333334 0.01677083333333333 0  0.0225 0.01 0  0.02375 0.01262152777777778 0  0.04250000000000001 0.02 0  0.04250000000000001 0.01 0  0.07750000000000001 0.01 0  0.07750000000000001 0.02 0  0.05036151960784314 0.01294424019607843 0  0.0705560064935065 0.01284699675324675 0  0.05458333333333334 0.01291666666666666 0  0.0021875 0.024375 0  0.005 0.0275 0  0.01125 0.0175 0  0.01463848039215686 0.01705575980392157 0  0.01 0.01375 0  0.03625 0.0125 0  0.0021875 0.009375 0  0.05375000000000001 0.0175 0  0.07125000000000001 0.0175 0  0.005 0.0025 0  0.0021875 0.005625 0  0.02655220103578155 0.01234889948210923 0  0.002187499999999999 0.020625 0  0.02979166666666667 0.01302083333333333 0  0.0525 0.01 0  0.07895833333333334 0.0125 0  0.01994277885235332 0.01704213007736944 0  0.07934656179076068 0.01733823814273861 0  0.04505722114764669 0.01295786992263056 0  0.06625 0.0175 0  0.006250000000000001 0.0175 0  0.05750000000000001 0.02 0  0.05875000000000001 0.0175 0  0.005 0.0225 0  0.005 0.0075 0  0.002375 0.027375 0  0.002375 0.002625000000000001 0  0.0475 0.01 0  0.0175 0.02 0  0.0325 0.01 0  0.03375 0.0121875 0  0.04261299435028249 0.01749205508474576 0  0.08500000000000001 0.0125 0  0.08250000000000002 0.01 0  0.02121963399965531 0.01224824108143494 0  0.0675 0.02 0  0.0125 0.02 0  0.02720152243589744 0.0175 0  0.03715165441176471 0.0175 0  0.08500000000000001 0.0175 0  0.0275 0.01 0  0.0025 0.0149560546875 0  0.0075 0.01 0  0.0075 0.02 0  0.06526785714285716 0.0125 0  0.01281031447005516 0.0125 0  0.0625 0.015 0  0.06 0.0125 0  0.05750000000000001 0.01 0  0.0625 0.02 0  0.0625 0.01 0  0.08250000000000002 0.02 0  0.04260103740101855 0.01252623201412851 0  0.02240052247582197 0.01750164767101344 0  0.07293583459427785 0.01238479732953041 0  0.005234374999999999 0.012265625 0  0.03528131980640358 0.01454684009679821 0  0.0325 0.01760027210036557 0  0.02532593822924343 0.01428227733767297 0  0.08009952069819683 0.01527145502895417 0  0.01987282359856536 0.01482587683689801 0  0.04828232595121382 0.01210233572595705 0  0.01671767404878618 0.01789766427404295 0  0.05125 0.01829007549029352 0  0.05247215456215357 0.01288882122882024 0  0.07338729919678716 0.01799385040160642 0  0.03838729919678716 0.01200614959839357 0  0.07717482110586968 0.01780301674207099 0  0.04771860040890012 0.01773306039388322 0  0.03125 0.01160380747126437 0  0.06875000000000001 0.01154265873015873 0  0.07625000000000001 0.01154065860215054 0  0.01625 0.01153997817696946 0  0.068125 0.018125 0  0.05437500000000001 0.015625 0  0.066875 0.015625 0  0.07039794950204951 0.01494384850614853 0  0.05687500000000001 0.018125 0  0.006875 0.015625 0  0.008749999999999999 0.01833333333333333 0  0.010625 0.015625 0  0.05625 0.01416666666666667 0  0.05812500000000001 0.015625 0  0.0449088595298192 0.01494528408816316 0  0 0.016875 0  0 0.013125 0  0.04962452342047931 0.01478673066448802 0  0.0153754765795207 0.01521326933551198 0  0.0771774565913315 0.01322498191305479 0  0.01857756431135545 0.01840228599899994 0  0.04642243568864456 0.01159771400100006 0  0.08125000000000002 0.01155637254901961 0  0.08317650804863432 0.0118234919513657 0  0.08288217288011697 0.01511353252923977 0  0.02837253504384828 0.0117177464035174 0  0.03896057962520807 0.01831163685754031 0  0.01125 0.0114244162490927 0  0.00935910490099115 0.0119067901980177 0  0.02946078431372549 0.01495404411764706 0  0.02875 0.0185829434466942 0  0.002968749999999999 0.0225 0  0.064375 0.016875 0  0.00296875 0.0075 0  0 0.001875 0  0 0.005625 0  0 0.009375 0  0 0.020625 0  0 0.024375 0  0 0.028125 0  0.06062500000000001 0.01812500000000001 0  0.008303571428571429 0.01446428571428572 0  0.01375 0.01865917058160413 0  0.05137790313978056 0.01143372888932909 0  0.04125000000000001 0.01131513063942604 0  0.04101690263896279 0.01844430285842771 0  0.02399563533148224 0.01844349395710867 0  0.08125000000000002 0.01868815426145731 0  0.05354684380692146 0.01145463537600848 0  0.01699195823639423 0.01315138909884649 0  0.07598357371794873 0.015 0  0.04098357371794872 0.015 0  0.003744047619047619 0.00375 0  0.003344630281690141 0.02580853873239437 0  0.04625 0.0187354532243972 0  0.06388392857142858 0.01138392857142858 0  0.06375 0.01375 0  0.05875 0.01375 0  0.06375 0.02 0  0.00622802734375 0.01372802734375 0  0.003630681818181818 0.001369318181818182 0  0.003630681818181818 0.02863068181818182 0  0.06125 0.01625 0  0.06125 0.01125 0  0.05625000000000001 0.01 0  0.05875 0.01125 0  0.06125 0.01375 0  0.08337864763241221 0.0183786476324122 0  0.05213634138653413 0.01674432930673294 0  0.04375000000000001 0.01 0  0.07424178685897437 0.01529258578431373 0  0.03924178685897436 0.01529258578431372 0  0.03410139294454583 0.01843406022904556 0  0.03089860705545417 0.01843406022904556 0  0.02094160484316717 0.01850229584291991 0  0.04375000000000001 0.02 0  0.04437042160883325 0.01820701498672512 0  0.04816311705429156 0.01600061344661149 0  0.07151224904251052 0.0114127410511319 0  0.04395528506193162 0.01639387970349481 0  0.0128750358694518 0.0167500179347259 0  0.02855808448399799 0.01642839899839741 0  0.02812690373330794 0.01340955081400569 0  0.08358500641945087 0.01351822349116885 0  0.05590277777777778 0.01173611111111111 0  0.06683110430364615 0.01164926404662283 0  0.02573206694914602 0.01842532451809762 0  0.01438126661842046 0.01166701193099454 0  0.02384283211216029 0.01526549696571563 0  0.03625 0.02 0  0.004609375000000001 0.0182421875 0  0.003398437500000001 0.01943359375 0  0.001728307845744682 0.01894718251329787 0  0.004377805359085963 0.01656966216675735 0  0.04649673309852075 0.0153889662370871 0  0.03615513600614297 0.01592654988586041 0  0.03316985071935832 0.01598763605018279 0  0.03110111603888768 0.01529816275177977 0  0.01370614113484869 0.0138804542047638 0  0.04930041102671841 0.01842260568883502 0  0.07875000000000001 0.02 0  0.0745395359848485 0.01165101111925709 0  0.03860755698543604 0.01373741558556884 0  0.02605038706571737 0.01573944002207753 0  0.07559826163500957 0.01841729376139847 0  0.04437500000000001 0.01149157931286774 0  0.06874116707361365 0.01454618473032123 0  0.003761917372881356 0.0239307468220339 0  0.003984374999999999 0.01125 0  0.003768503289473684 0.01392539576480263 0  0.001796875 0.0111328125 0  0.003761917372881356 0.008930746822033899 0  0.005 0.00625 0  0.003761917372881355 0.0210692531779661 0  0.06633928571428571 0.01410714285714285 0  0.006484375 0.01125 0  0.08364120589325512 0.01657288979763549 0  0.03576267476503373 0.0184116442851204 0  0.07370875846579374 0.0137848203678562 0  0.06964285714285715 0.01758928571428571 0  0.05520833333333334 0.01833333333333333 0  0.06491071428571429 0.01839285714285714 0  0.0510098951944636 0.01559941474766356 0  0.01786087179886325 0.0115702210443714 0  0.01972197383235524 0.01160576093166696 0  0.01804697593127788 0.01433503795474974 0  0.001644074528704677 0.01642892723865279 0  0.00125 0.03 0  0.001497685185185185 0.001267746913580247 0  0.07315451164202422 0.01643443118912983 0  0.001233906745910645 0.0140625 0  0.01162635071030191 0.01362229857939618 0  0.01528023503083844 0.01845923557506155 0  0.06625 0.02 0  0.07695012019230771 0.01624387078484555 0  0.03139091092855769 0.01320776147621796 0  0.03857339107781042 0.01675295051810485 0  0.001754993120977522 0.02590789105493891 0  0.002288757784711197 0.00412546923654445 0  0.07914382119690884 0.01404430049871201 0  0.001391810103286306 0.01257390899021902 0  0.0419501201923077 0.01614675005432421 0  0.001484375 0.007018229166666667 0  0.001484375 0.02201822916666666 0  0.048
[...]
<PointData  Scalars="concentration"> 
<DataArray  type="Float64"  Name="concentration"  format="ascii">5.4210618056889770e-01  9.9845634372396508e-01  9.9999999999999889e-01  9.9999999999999889e-01  -2.8272774843121057e-23  9.3343521419114342e-24  4.8723994043054324e-03  5.3088821956252819e-01  5.6284652010280511e-01  2.7491363610411209e-04  9.9993636509221084e-01  5.9222870105506531e-01  4.8090135719377791e-01  3.5863484771291859e-01  7.1247973120781782e-01  5.5405776874959378e-01  5.1882118874714178e-01  6.3552230704423285e-01  4.3637992760971422e-01  5.4633754159975656e-01  5.2667821629185707e-01  8.4447950972043051e-01  2.1766115217608509e-01  5.0519443592829516e-01  5.6773265355381630e-01  5.2333371487577773e-01  5.4969576897351657e-01  4.9463241944721120e-01  4.0276570100384529e-01  6.6862191433675355e-01  4.6202839559893466e-01  1.1203877554527378e-01  7.6968790669663012e-01  5.3650738013549104e-01  5.3649529189425194e-01  5.7818397112202569e-01  5.3648700394100912e-01  6.1077628934956640e-01  5.3651800900937208e-01  5.3646461205154972e-01  2.9942564802861710e-01  9.3387153551917435e-01  5.3693668710208975e-01  5.4462723784996669e-01  5.2914048767689459e-01  5.4387472727176334e-01  5.1299742098005130e-01  5.3653195146950061e-01  5.3651006308350935e-01  -1.3042392530436430e-08  5.6288717879251404e-01  5.3757306587582909e-01  5.3649649735978322e-01  9.9999999492112890e-01  5.1308221232040885e-01  5.5990932798223536e-01  6.0616194928839440e-01  5.2512713382501941e-01  5.4216973948464653e-01  7.4013935147787846e-01  5.4827065770626060e-01  1.9887292064747886e-06  9.8178524145150370e-01  3.9674995625277570e-02  9.9999965868312979e-01  5.3336902256414087e-01  5.2136960457975345e-01  1.6667499551759446e-01  5.5159456265028250e-01  5.1654609285641462e-01  5.2154056746523292e-01  5.4060374200263894e-01  5.2815689091453255e-01  2.6154428799841389e-01  3.7574130099624553e-01  5.8486519619545296e-01  5.6672852216959457e-01  1.1041131844006269e-01  9.9999999999999867e-01  -6.1635266927150148e-24  9.4547696134626591e-01  3.6538597117989180e-01  5.5995420741403046e-01  6.5095643450626395e-01  5.9150696805073710e-01  6.2245359464472094e-01  6.0782206744614964e-01  6.8999638237966188e-01  5.7259910803967862e-01  1.6687510191751825e-01  4.9567247213631499e-01  4.5063671130716199e-01  7.4047805381789145e-01  6.3544621235764676e-01  5.3110220772726024e-01  5.2512572708553718e-01  5.4187875554920939e-01  5.4787887195579688e-01  5.7733609247834694e-01  3.3186691103279997e-01  4.0142997410596826e-01  6.0091268198002390e-01  4.7193971978208887e-01  5.2788940138931073e-01  5.4504162438286874e-01  5.1075930969803318e-01  5.2815885901688164e-01  5.1606845441378346e-01  1.0000001953742750e+00  9.9999999907026937e-01  8.2538663218518693e-01  7.4056969116346372e-01  3.6769585199276145e-01  4.6787418339332093e-01  1.3612176160760253e-03  5.6127635499277229e-01  5.4555563874583901e-01  -5.8968185675392845e-09  3.3783451097526777e-06  4.1126070890936728e-01  9.9997433225041055e-01  4.5447269659011647e-01  5.0042525474971777e-01  5.3069701162774674e-01  6.8506929161760599e-01  5.4188689995085904e-01  5.0180155629172418e-01  5.4849681038052256e-01  9.2070834079600905e-01  5.6371054717412084e-01  5.5519617721934078e-01  9.9999883605945084e-01  1.1699483987398585e-06  1.0000000003680640e+00  6.6792470579053469e-09  4.8837562710619359e-01  8.0528217945756964e-01  4.2197101008126631e-01  4.5075363066280788e-01  5.8395133860751203e-01  5.3240956616496515e-01  5.3013604294727812e-01  3.6188755301042308e-01  5.5167801521928694e-01  8.8689238747252230e-01  6.5150942692393909e-01  6.0077436099190795e-01  5.4057723395806123e-01  3.8325341854920958e-01  5.5684515580470639e-01  5.2346349555645690e-02  9.7474023701422097e-01  5.2371375042269019e-01  2.6958196480190033e-01  5.3652234731900639e-01  5.1932584529816994e-01  5.0927470519601759e-01  5.5688916159165525e-01  5.1617017098337070e-01  5.4285665737664301e-01  4.8956971555624129e-01  6.8846401345636610e-01  5.2800000987444939e-01  9.4110355908220700e-02  5.2157758524704856e-01  6.2362056161685286e-01  4.9542836900093523e-01  5.3717535779561065e-01  5.2509947428613257e-01  4.9846768954839366e-01  7.7007352628215486e-01  5.7079192932441070e-01  5.1322275802092132e-01  5.4556939440896524e-01  4.6828785015017316e-01  5.4350514377619463e-01  5.7421597871534080e-01  4.2606883981580357e-01  5.2367958102495238e-01  5.2816939983255595e-01  2.6929879457195277e-01  5.4912542323491609e-01  5.4326256781955662e-01  5.3974757658908501e-01  5.3626939766900328e-01  5.6059887856824042e-01  6.6887354505555563e-01  9.2129375850214612e-01  6.3389986548708466e-01  5.2855193029233083e-01  5.4191583854036540e-01  5.3556294049884634e-01  8.6944801866993793e-01  2.1234088378061683e-01  5.3349041222622207e-01  5.6294305695896196e-01  5.3167292554035595e-01  7.6548331558636995e-01  4.9025396487162642e-01  5.3029643467824417e-01  5.3126063005485313e-01  5.3672603780535522e-01  4.0786456415451183e-01  6.0659620763898325e-01  1.6715874323432944e-01  1.5445227042192081e-01  5.3450863644694868e-01  6.6804520409124091e-01  1.0000001981279965e+00  5.4711663734073845e-01  -4.5365548193664523e-06  5.6459613338239293e-07  1.9543561958994291e-05  3.7332581445993001e-03  9.9878949339594914e-01  9.9999605937607849e-01  9.9999991308270808e-01  5.5598867251869755e-01  4.6272708421791708e-01  8.4762579854239550e-01  5.0071947330923439e-01  4.7136225217722028e-01  6.0071601756915083e-01  7.0558860135427648e-01  5.4290196573214466e-01  5.0520053660016029e-01  3.7524220317316681e-01  5.3649828052798587e-01  5.3654594805765776e-01  8.9153972279667025e-10  9.9999999346885005e-01  5.8558709576075729e-01  5.1913417908449500e-01  5.2890869796758921e-01  5.2636737648056642e-01  5.5535049386802149e-01  3.1934519024458441e-01  -9.4809091379576786e-09  9.9999999944175444e-01  5.4528188944987355e-01  5.1584861275436300e-01  5.0744761358333468e-01  5.1266984295072049e-01  5.2776939257928390e-01  5.4186801723596600e-01  5.5665601927078989e-01  4.7651485624550316e-01  5.3750607965651043e-01  5.4393549210367886e-01  6.3133627795974057e-01  6.5012605228861498e-01  7.3959809403803722e-01  5.9628821727488535e-01  5.8679805466983004e-01  5.5156974376969625e-01  5.2533570129182228e-01  5.6303815407937075e-01  7.3703225242389414e-01  6.0251579328422444e-01  4.6271027325306963e-01  5.3375861402641789e-01  5.1028713822874439e-01  5.2241244282543731e-01  6.8847951045814804e-01  2.4380193713855899e-01  5.5372242594932264e-01  6.2921329231576983e-01  9.7832411364700300e-01  9.9776449427667380e-01  9.9147254444360366e-01  8.4414933603366549e-01  5.4319677224090479e-01  5.6467130340471317e-01  5.7212590277025199e-01  5.4910561673718961e-01  4.1616585821483237e-01  5.7561764183517172e-01  5.4445478784282064e-01  5.2745221862056346e-01  5.0386322932818473e-01  5.7741339347456133e-01  5.4508828310650037e-01  4.8367059426438086e-01  5.3440691496775317e-01  9.9999995299052413e-01  2.1734660979285222e-02  3.3387661368952420e-01  2.3854215855069888e-02  2.9310780492637070e-04  2.0138079280768094e-07  9.9998346675769401e-01  5.3178645944902292e-01  5.0116052709614861e-02  5.3937463969224386e-01  6.2240446873909661e-01  5.3233949336120434e-01  5.4667188912941167e-01  5.6413779856930379e-01  5.5235579722055406e-01  5.4433596999499845e-01  2.9386259924666180e-01  3.1905249268203584e-01  4.8168793106004149e-01  8.2673694313235757e-01  9.9999999999999967e-01  -2.0167156137120342e-08  5.4152950429491187e-01  3.6450176177650612e-01  3.7028788889644493e-01  8.1558871996607130e-01  5.5286619237265544e-01  5.4006563497978144e-01  4.6776397893955995e-01  5.8092917580684234e-01  9.9999998397467660e-01  -2.1541141882535669e-07  5.3409371306384235e-01  1.2301807081547485e-01  5.6139811981032472e-01  -1.5357619706893344e-05  9.9996940022232805e-01  5.1465429729187773e-01  4.9792815787388284e-01  6.8631762279218056e-01  5.2349301195915565e-01  5.0738689074953014e-01  6.8669554129758936e-01  5.1455788062278540e-01  6.0410691764746383e-01  5.1175790031864699e-01  5.2453061238170196e-01  4.7093415581129522e-01  6.1071474407828663e-01  4.5134422178995803e-01  4.1891271278032766e-01  3.7842441335568128e-01  3.4470750434205100e-01  3.7003612894004073e-01  3.5274167812530555e-01  5.2782587030635830e-01  5.3246690504884298e-01  5.2877238185549080e-01  9.9999889578307211e-01  1.6375079407907793e-07  4.7374317204936574e-04  4.1288572062464135e-01  1.0000000060121672e+00  4.7409752420368023e-01  4.7809629296520362e-01  5.4853261612877580e-01  5.4534354067275070e-01  5.5478359007785361e-01  5.5144925883767115e-01  5.4739069226305803e-01  8.3515342126626579e-01  4.4614248586178412e-01  4.4434674414200148e-01  4.5496474363721912e-01  8.7386357505605072e-01  9.8976162405420132e-01  5.4760176676887118e-01  5.4335602012675532e-01  5.6133952183491898e-01  5.6938569635889436e-01  5.0395345164341532e-01  9.0874033718082414e-01  5.5505309780245538e-01  9.0808533827109617e-01  8.6699926173952147e-01  9.6392743864509045e-01  5.4057392479840205e-01  5.5220633169554634e-01  5.3805030460524161e-01  5.2797546680639384e-01  2.6872002103401493e-01  5.2444592217390373e-01  5.2908178485766921e-01  5.4151682405169521e-01  5.4377032098926747e-01  5.3908797647694773e-01  1.9751881707687788e-06  5.7026005520555245e-01  5.3142218813122111e-01  5.2857066725754687e-01  5.2957436560262661e-01  8.2473786450952080e-01  4.9172664857863180e-01  9.5348424651004660e-01  5.8981398056366607e-01  5.4178140595793678e-01  7.9225655489956304e-01  8.2001370307678886e-02  8.6511091397189446e-02  6.3395268927712489e-01  2.8077765617684802e-01  4.2784257863848130e-01  5.6561425156636191e-01  5.4042562152991558e-01  5.5063866378663950e-01  5.5827646054370528e-01  4.7125294983340915e-01  5.6213264744807789e-01  2.3382653017939289e-01  4.8274295461072730e-01  9.9999996925972368e-01  2.0598567513323086e-07  9.9999999714316401e-01  5.2595408504826568e-01  4.5814496877776950e-01  5.0052181651709926e-01  5.8924820422364115e-03  5.7148647348791093e-01  5.9567551578098055e-01  3.1460159179578728e-01  7.9538026075934221e-01  5.3123935863116201e-01  5.3063950091993473e-01  5.5619477322124289e-01  5.5920920848427691e-01  5.4707979785811622e-01  4.5650672662692426e-01  5.4964437429962121e-01  4.6832849143725042e-01  4.3091055251499227e-01  4.2988234129193093e-01  3.8403829910804532e-01  5.8405583384975845e-01  5.2577254154282027e-01  3.8814781226720718e-01  4.7707295281931400e-01  6.2081333148712936e-01  5.7147505595110315e-01  6.2257068313482078e-01  5.2617450318618597e-01  1.9611324460047069e-01  5.9858734694936522e-01  6.3927799027962917e-01  6.8101608724492668e-01  5.9844734248687170e-01  6.7712979060561496e-01  5.2003250242326171e-01  5.2949704375294115e-01  5.2603340280651367e-01  7.0304337971237602e-03  5.5113631075804526e-01  2.9151719242005042e-01  6.8731863416865080e-01  7.2620795250700632e-01  5.4872934382340677e-01  5.4563457306945373e-01  5.8136318285300348e-01  7.0086587783529475e-01  5.2415409177134697e-01  6.4286700624697357e-01  5.4470514026025540e-01  5.2018519868046453e-01  5.1763058054661393e-01  5.0283098972710016e-01  5.4334878035287792e-01  7.2547070633606014e-01  4.9728885795050970e-01  4.6683175597256760e-01  6.1639427814980763e-01  5.2964876141805439e-01  5.2732351410765865e-01  5.2237912717747315e-01  5.7530290260579575e-01  6.0635476965833734e-01  9.9999994375972256e-01  5.3871161569790005e-01  5.1081884854200021e-01  5.1725645613853333e-01  8.6742249041615693e-01  1.3742492594977021e-01  9.5397763755236220e-01  2.3993087607698318e-01  -5.0914602349565186e-06  1.9277970585989174e-01  -1.9314661497866417e-23  -3.7492973648183888e-09  -8.3902125031759328e-09  1.0000000000000009e+00  -4.5045663024215261e-23  2.3390854623475600e-02  9.8263938625152991e-01  9.9998004296171994e-01  5.3426525819209791e-01  7.5461870897905758e-01  5.2830776871898721e-01  9.9999999824682873e-01  6.7841734016928934e-01  3.9416838313010777e-01  7.8675880398743214e-01  4.1320865182571886e-01  9.9999999926853722e-01  5.4176377188225966e-01  6.6019573851578350e-01  5.6799940976742658e-01  5.3646837448931795e-01  5.2703542014230176e-01  5.1799888961423168e-01  5.1442533072101160e-01  5.1115637165827332e-01  5.2041181980805740e-01  5.1455642226495812e-01  5.8860983121645571e-01  4.8464896165192606e-01  5.6184888903025010e-01  5.4236681360298378e-01  4.8721266190763302e-01  5.4154749228174603e-01  5.8122092985254514e-01  5.8323475942558656e-01  5.2333245658999195e-01  2.6391697623027871e-01  3.5679711687062132e-01  5.1793101085439686e-01  5.3369569149460483e-01  5.4627953320191491e-01  5.3242403228436064e-01  4.9427663305563546e-01  5.2853530199468746e-01  5.3863609862455386e-01  9.9509463744418192e-01  6.2495295543717710e-01  6.4843139935676464e-01  6.1098885934550129e-01  5.4436494090537024e-01  3.8592935684858371e-07  5.4508221191164963e-01  -1.0219911038590631e-09  9.9882343514168626e-01  6.3696828626743474e-01  5.3840062087014917e-01  5.3161374125251848e-01  5.0636633507889728e-01  5.2319235419209298e-01  5.3376761512010651e-01  7.4533982767334606e-01  5.6184770044543064e-01  5.9000644105978084e-01  9.9999944144201491e-01  3.0740274863428618e-01  5.2926919258257110e-01  5.3409244093769170e-01  5.1710772085370205e-01  2.3739783026045107e-02  1.2723880593348252e-01  9.1634841896436225e-02  5.6831282132779970e-01  5.5777380875649984e-01  5.3451518265643971e-01  6.2276670044071336e-01  5.7456048036843577e-01  5.5150505241050030e-01  5.5815167328373372e-01  3.2831618916387245e-01  5.4444969282294886e-01  7.9396112714139422e-01  5.0944011696701885e-01  4.9130280825435696e-01  6.9858765655400679e-01  5.3146269225298759e-01  4.7717594971220084e-01  5.7593438393677887e-01  6.1740907800129929e-01  2.4874020403973035e-01  5.3985694677770335e-01  5.4244356317014342e-01  5.3566958203970416e-01  6.1117001081002076e-01  4.4323576909786094e-01  4.6153589510084486e-01  9.9999999131785788e-01  5.3847342907828810e-01  5.4509451779303619e-01  4.8277988450961523e-01  5.2968056088422311e-01  4.3542274836701950e-01  8.6547560568697516e-06  4.7946656174204144e-01  5.0460373757471211e-01  3.8117767648043116e-01  6.5659756070817588e-01  8.1261438962603527e-01  5.4209862375652185e-01  6.0025013200606459e-01  5.3465224954876744e-01  4.8397807347338800e-01  5.0735960202962727e-01  1.8509471085994099e-08  4.5579583553664305e-01  5.4714452947628933e-01  4.4681552733549296e-01  5.3230218314946154e-01  5.7035264018591880e-01  3.1038790617883460e-01  2.7409379020486612e-03  5.3882509078623031e-01  5.3576989544703291e-01  5.7587679116665325e-01  5.5248166414170463e-01  5.1436026484268282e-01  5.1159302451525301e-01  4.6080058850033817e-01  5.3828632821990319e-01  5.2654892796173891e-01  7.9075382530327964e-01  1.0424820006661102e-06  -6.2593591023863370e-05  9.9999644989931380e-01  4.1689030879767269e-01  5.5303935694221573e-01  9.0996302961032161e-01  9.3494734084206299e-01  9.5885285909996776e-01  8.5444081054510757e-01  5.4104121751444334e-01  5.3328525993780873e-01  5.5510933136571550e-01  5.0497582440173794e-01  5.2382268644713792e-01  4.4540580398096852e-01  5.3313165009997177e-01  5.7315903353321829e-01  5.9721945072551974e-01  6.0792564470609878e-01  7.3528856966989700e-11  7.5913080927814636e-01  9.9999999169793208e-01  5.3651489487403659e-01  5.2176022263782817e-01  6.5014599262980566e-01  5.0792606524726269e-01  4.8710524498934071e-01  7.7415117922502441e-01  9.9973894167837762e-01  3.4068294537139297e-02  6.4438233041330506e-01  -1.5060005155030125e-07  4.3352811721782097e-01  4.1107627249067602e-01  1.0000000325297289e+00  9.9999984364711469e-01  4.4915953190933345e-06  5.8117539372240556e-01  5.8968679373872956e-01  7.4457839463831410e-01  5.1092600912913533e-01  5.5754974402093493e-01  9.9999960422711820e-01  1.1192652373007935e-04  4.4646931609198443e-01  1.0578503479799194e-01  9.6518806881293784e-01  9.8729739628427882e-01  5.2887235301836100e-01  5.2346942908102290e-01  5.7775665242854768e-01  5.3162893892264784e-01  5.2951565920679178e-01  5.3001350600758790e-01  5.3393209057664137e-01  5.1739580523230821e-01  5.5009977952535771e-01  4.9680878848633597e-01  5.2555288205884187e-01  5.2212418407921568e-01  7.3927052710782748e-01  5.4682422120208474e-01  6.5077933812194189e-01  5.5612532283683869e-01  5.2791262252343374e-01  5.2780457513982604e-01  5.2713833497231954e-01  5.2880785737096991e-01  5.2990378170422170e-01  2.5542137224321265e-01  2.8405299760056058e-01  2.3409081154546921e-01  6.0094056770101834e-01  5.5443850306923659e-01  5.5092786591974052e-01  5.4708272312390649e-01  7.0287718027681612e-01  5.5081534815956767e-01  5.4198665331969853e-01  5.6401076268043182e-01  5.4892057050364895e-01  5.4605662264396382e-01  5.4031587378269552e-01  8.2344678203536170e-01  7.5898177397143762e-01  5.3294308664606915e-01  6.3672868805337413e-01  5.4437321048885956e-01  5.3823970369261653e-01  5.4802954016981553e-01  5.5779544561184979e-01  5.4819142670380794e-01  5.5494666925515879e-01  5.5311378433722524e-01  5.3750070356303015e-01  5.5882653657411530e-01  5.3661019084578232e-01  5.3769190910262810e-01  4.9826197545669421e-01  5.6617911485582129e-01  5.3931458238119212e-01  4.9280641171061034e-08  5.5470600971284068e-01  5.6742513163879893e-01  1.3034602033118711e-01  5.0711202976722358e-01  7.4309052302837908e-01  7.2116187800527620e-01  6.1572238123016576e-01  1.5916160574640248e-01  2.0132474106839551e-01  5.4324157751626734e-01  5.2305519853245519e-01  6.7085711887814548e-01  6.7723636758383832e-01  4.1973043478390576e-01  5.3085955566672594e-01  5.3050571988317619e-01  5.3165933725820491e-01  4.9044069715784328e-01  8.8027338729690130e-01  5.3306009475611627e-01  5.1567818237635832e-01  5.6019292560685108e-01  5.3964721047700603e-01  5.0301471759513450e-01  5.1650929963407455e-01  4.6527156520573931e-01  4.8857475780904175e-01  5.3092995122615094e-01  4.2608174083416889e-01  3.9137743306968642e-01  4.1303167737830715e-01  1.0000000058320264e+00  5.3225415033915119e-02  5.0684937669784713e-01  5.0867150247263881e-01  5.3033450261873150e-01  3.2119111361892055e-01  5.6992916673707550e-01  4.8845905952533702e-01  5.4294745927413368e-01  7.4700188014691611e-07  3.1046153768449980e-01  5.0262829993357949e-01  5.4472176470675948e-01  7.8361896190369911e-05  5.8643958456601952e-01  5.9398037109375768e-01  5.7437422122453841e-01  2.4586278005807841e-01  1.6064895877283497e-01  9.9999976142673674e-01  5.1017056120262461e-01  8.1455046511394147e-01  6.7162237304530814e-01  5.8204453238564868e-01  5.3740451215939411e-01  5.6293188260653126e-01  5.3981801472640556e-01  2.9163142506672807e-01  9.9975124949382510e-01  9.9998484621210215e-01  1.3260654093632340e-02  5.3453665266104899e-01  5.9438638400426948e-06  1.1174758189705445e-03  1.0136865612222357e-01  3.7570953473900670e-01  9.9999986323262791e-01  9.4872096893417235e-01  9.9999896249288545e-01  4.7865037568687563e-01  5.2540210655857633e-01  8.0814857295257725e-01  5.2545110980145449e-01  1.0000000682774468e+00  3.0171639873926354e-01  3.4197900804650716e-01  5.9294232726691731e-01  3.4139512718126225e-01  6.9886510131386892e-01  7.1652673713402759e-01  5.3921784191246147e-01  5.3228616712879795e-01  3.2493772363731482e-01  5.4075320464635013e-01  5.4095136540470934e-01  5.4260001543720948e-01  5.8812647866951850e-01  5.6742227324941108e-01  9.9999999720959476e-01  4.8688191716204948e-01  4.3151351620341266e-01  5.5225603455669559e-01  8.4450408070819316e-01  8.7274542227088070e-01  5.4343333440852437e-01  5.2646687541813642e-01  -3.2593574998302262e-08  4.4395961662108147e-01  5.7466167425022008e-01  4.9714340207330870e-01  5.0054192414977372e-01  5.0461017876922343e-01  5.3634110344891428e-01  5.2007553614745983e-01  4.7795911346807529e-01  4.7065442267577218e-01  4.9340558125994194e-01  5.4351260294003412e-01  3.9947313451051147e-01  7.7293584424813921e-01  4.0663113820203645e-01  6.6242006258328046e-01  6.3783474610982627e-01  6.3236669271552037e-01  9.9527007883605290e-01  9.7621026628808316e-01  6.5896506086064923e-03  5.70625