<?xml version="1.0"?>
<VTKFile type="UnstructuredGrid"  version="0.1"  >
<UnstructuredGrid>
<Piece  NumberOfPoints="1079" NumberOfCells="1944">
<Points>
<DataArray  type="Float64"  NumberOfComponents="3"  format="ascii">0.08500000000000001 0.02 0  0.005 0.02 0  0.005 0.03 0  0 0.03 0  0 0 0  0.005 0 0  0.005 0.01 0  0.08500000000000001 0.01 0  0 0.015 0  0 0.0075 0  0 0.0225 0  0.04500000000000001 0.02 0  0.04500000000000001 0.01 0  0.025 0.01 0  0.025 0.02 0  0.065 0.02 0  0.065 0.01 0  0.035 0.02 0  0.035 0.01 0  0.07500000000000001 0.02 0  0.07500000000000001 0.01 0  0.015 0.02 0  0.015 0.01 0  0.05500000000000001 0.01 0  0.05500000000000001 0.02 0  0.07000000000000001 0.01 0  0.07000000000000001 0.02 0  0.05 0.01 0  0.03 0.01 0  0.03 0.02 0  0.04000000000000001 0.01 0  0.01 0.01 0  0.02 0.02 0  0.06 0.015 0  0.08500000000000001 0.015 0  0.05 0.02 0  0.07250000000000001 0.015 0  0.04000000000000001 0.02 0  0.03750000000000001 0.015 0  0.0525 0.015 0  0.02 0.01 0  0.01 0.02 0  0.0275 0.015 0  0.0125 0.015 0  0.08000000000000002 0.01 0  0.08000000000000002 0.02 0  0.0325 0.014375 0  0.04291666666666667 0.015 0  0.065 0.015 0  0.005 0.005 0  0.005 0.015 0  0.02208333333333334 0.015 0  0.07791666666666668 0.015 0  0.005 0.025 0  0.06 0.01 0  0.06 0.02 0  0.01729166666666667 0.01572916666666667 0  0.04770833333333334 0.01427083333333334 0  0.06875000000000001 0.01625 0  0.008750000000000001 0.01625 0  0.05625000000000001 0.01625 0  0 0.00375 0  0 0.01875 0  0 0.01125 0  0 0.02625 0  0.08145833333333334 0.01354166666666667 0  0.0675 0.01 0  0.0075 0.0125 0  0.0625 0.0175 0  0.0575 0.0125 0  0.0625 0.0125 0  0.08207465277777778 0.01707465277777778 0  0.06767857142857144 0.01321428571428571 0  0.0175 0.01 0  0.01875 0.01291382575757576 0  0.0475 0.02 0  0.04564168086314595 0.01679860519591141 0  0.00296875 0.0125 0  0.0025 0.03 0  0.0025 0 0  0.00296875 0.0175 0  0.01521990740740741 0.0132349537037037 0  0.0497800925925926 0.0167650462962963 0  0.0325 0.02 0  0.03474264705882353 0.01674632352941176 0  0.03750000000000001 0.02 0  0.03025735294117647 0.01674632352941176 0  0.0275 0.02 0  0.0525 0.02 0  0.0125 0.01 0  0.04020833333333334 0.01322916666666667 0  0.03750000000000001 0.01 0  0.0225 0.02 0  0.02479166666666667 0.01677083333333333 0  0.07520833333333335 0.01322916666666667 0  0.07250000000000001 0.01 0  0.07520833333333335 0.01677083333333334 0  0.07250000000000001 0.02 0  0.04020833333333334 0.01677083333333333 0  0.0225 0.01 0  0.02375 0.01262152777777778 0  0.04250000000000001 0.02 0  0.04250000000000001 0.01 0  0.07750000000000001 0.01 0  0.07750000000000001 0.02 0  0.05036151960784314 0.01294424019607843 0  0.0705560064935065 0.01284699675324675 0  0.05458333333333334 0.01291666666666666 0  0.0021875 0.024375 0  0.005 0.0275 0  0.01125 0.0175 0  0.01463848039215686 0.01705575980392157 0  0.01 0.01375 0  0.03625 0.0125 0  0.0021875 0.009375 0  0.05375000000000001 0.0175 0  0.07125000000000001 0.0175 0  0.005 0.0025 0  0.0021875 0.005625 0  0.02655220103578155 0.01234889948210923 0  0.002187499999999999 0.020625 0  0.02979166666666667 0.01302083333333333 0  0.0525 0.01 0  0.07895833333333334 0.0125 0  0.01994277885235332 0.01704213007736944 0  0.07934656179076068 0.01733823814273861 0  0.04505722114764669 0.01295786992263056 0  0.06625 0.0175 0  0.006250000000000001 0.0175 0  0.05750000000000001 0.02 0  0.05875000000000001 0.0175 0  0.005 0.0225 0  0.005 0.0075 0  0.002375 0.027375 0  0.002375 0.002625000000000001 0  0.0475 0.01 0  0.0175 0.02 0  0.0325 0.01 0  0.03375 0.0121875 0  0.04261299435028249 0.01749205508474576 0  0.08500000000000001 0.0125 0  0.08250000000000002 0.01 0  0.02121963399965531 0.01224824108143494 0  0.0675 0.02 0  0.0125 0.02 0  0.02720152243589744 0.0175 0  0.03715165441176471 0.0175 0  0.08500000000000001 0.0175 0  0.0275 0.01 0  0.0025 0.0149560546875 0  0.0075 0.01 0  0.0075 0.02 0  0.06526785714285716 0.0125 0  0.01281031447005516 0.0125 0  0.0625 0.015 0  0.06 0.0125 0  0.05750000000000001 0.01 0  0.0625 0.02 0  0.0625 0.01 0  0.08250000000000002 0.02 0  0.04260103740101855 0.01252623201412851 0  0.02240052247582197 0.01750164767101344 0  0.07293583459427785 0.01238479732953041 0  0.005234374999999999 0.012265625 0  0.03528131980640358 0.01454684009679821 0  0.0325 0.01760027210036557 0  0.02532593822924343 0.01428227733767297 0  0.08009952069819683 0.01527145502895417 0  0.01987282359856536 0.01482587683689801 0  0.04828232595121382 0.01210233572595705 0  0.01671767404878618 0.01789766427404295 0  0.05125 0.01829007549029352 0  0.05247215456215357 0.01288882122882024 0  0.07338729919678716 0.01799385040160642 0  0.03838729919678716 0.01200614959839357 0  0.07717482110586968 0.01780301674207099 0  0.04771860040890012 0.01773306039388322 0  0.03125 0.01160380747126437 0  0.06875000000000001 0.01154265873015873 0  0.07625000000000001 0.01154065860215054 0  0.01625 0.01153997817696946 0  0.068125 0.018125 0  0.05437500000000001 0.015625 0  0.066875 0.015625 0  0.07039794950204951 0.01494384850614853 0  0.05687500000000001 0.018125 0  0.006875 0.015625 0  0.008749999999999999 0.01833333333333333 0  0.010625 0.015625 0  0.05625 0.01416666666666667 0  0.05812500000000001 0.015625 0  0.0449088595298192 0.01494528408816316 0  0 0.016875 0  0 0.013125 0  0.04962452342047931 0.01478673066448802 0  0.0153754765795207 0.01521326933551198 0  0.0771774565913315 0.01322498191305479 0  0.01857756431135545 0.01840228599899994 0  0.04642243568864456 0.01159771400100006 0  0.08125000000000002 0.01155637254901961 0  0.08317650804863432 0.0118234919513657 0  0.08288217288011697 0.01511353252923977 0  0.02837253504384828 0.0117177464035174 0  0.03896057962520807 0.01831163685754031 0  0.01125 0.0114244162490927 0  0.00935910490099115 0.0119067901980177 0  0.02946078431372549 0.01495404411764706 0  0.02875 0.0185829434466942 0  0.002968749999999999 0.0225 0  0.064375 0.016875 0  0.00296875 0.0075 0  0 0.001875 0  0 0.005625 0  0 0.009375 0  0 0.020625 0  0 0.024375 0  0 0.028125 0  0.06062500000000001 0.01812500000000001 0  0.008303571428571429 0.01446428571428572 0  0.01375 0.01865917058160413 0  0.05137790313978056 0.01143372888932909 0  0.04125000000000001 0.01131513063942604 0  0.04101690263896279 0.01844430285842771 0  0.02399563533148224 0.01844349395710867 0  0.08125000000000002 0.01868815426145731 0  0.05354684380692146 0.01145463537600848 0  0.01699195823639423 0.01315138909884649 0  0.07598357371794873 0.015 0  0.04098357371794872 0.015 0  0.003744047619047619 0.00375 0  0.003344630281690141 0.02580853873239437 0  0.04625 0.0187354532243972 0  0.06388392857142858 0.01138392857142858 0  0.06375 0.01375 0  0.05875 0.01375 0  0.06375 0.02 0  0.00622802734375 0.01372802734375 0  0.003630681818181818 0.001369318181818182 0  0.003630681818181818 0.02863068181818182 0  0.06125 0.01625 0  0.06125 0.01125 0  0.05625000000000001 0.01 0  0.05875 0.01125 0  0.06125 0.01375 0  0.08337864763241221 0.0183786476324122 0  0.05213634138653413 0.01674432930673294 0  0.04375000000000001 0.01 0  0.07424178685897437 0.01529258578431373 0  0.03924178685897436 0.01529258578431372 0  0.03410139294454583 0.01843406022904556 0  0.03089860705545417 0.01843406022904556 0  0.02094160484316717 0.01850229584291991 0  0.04375000000000001 0.02 0  0.04437042160883325 0.01820701498672512 0  0.04816311705429156 0.01600061344661149 0  0.07151224904251052 0.0114127410511319 0  0.04395528506193162 0.01639387970349481 0  0.0128750358694518 0.0167500179347259 0  0.02855808448399799 0.01642839899839741 0  0.02812690373330794 0.01340955081400569 0  0.08358500641945087 0.01351822349116885 0  0.05590277777777778 0.01173611111111111 0  0.06683110430364615 0.01164926404662283 0  0.02573206694914602 0.01842532451809762 0  0.01438126661842046 0.01166701193099454 0  0.02384283211216029 0.01526549696571563 0  0.03625 0.02 0  0.004609375000000001 0.0182421875 0  0.003398437500000001 0.01943359375 0  0.001728307845744682 0.01894718251329787 0  0.004377805359085963 0.01656966216675735 0  0.04649673309852075 0.0153889662370871 0  0.03615513600614297 0.01592654988586041 0  0.03316985071935832 0.01598763605018279 0  0.03110111603888768 0.01529816275177977 0  0.01370614113484869 0.0138804542047638 0  0.04930041102671841 0.01842260568883502 0  0.07875000000000001 0.02 0  0.0745395359848485 0.01165101111925709 0  0.03860755698543604 0.01373741558556884 0  0.02605038706571737 0.01573944002207753 0  0.07559826163500957 0.01841729376139847 0  0.04437500000000001 0.01149157931286774 0  0.06874116707361365 0.01454618473032123 0  0.003761917372881356 0.0239307468220339 0  0.003984374999999999 0.01125 0  0.003768503289473684 0.01392539576480263 0  0.001796875 0.0111328125 0  0.003761917372881356 0.008930746822033899 0  0.005 0.00625 0  0.003761917372881355 0.0210692531779661 0  0.06633928571428571 0.01410714285714285 0  0.006484375 0.01125 0  0.08364120589325512 0.01657288979763549 0  0.03576267476503373 0.0184116442851204 0  0.07370875846579374 0.0137848203678562 0  0.06964285714285715 0.01758928571428571 0  0.05520833333333334 0.01833333333333333 0  0.06491071428571429 0.01839285714285714 0  0.0510098951944636 0.01559941474766356 0  0.01786087179886325 0.0115702210443714 0  0.01972197383235524 0.01160576093166696 0  0.01804697593127788 0.01433503795474974 0  0.001644074528704677 0.01642892723865279 0  0.00125 0.03 0  0.001497685185185185 0.001267746913580247 0  0.07315451164202422 0.01643443118912983 0  0.001233906745910645 0.0140625 0  0.01162635071030191 0.01362229857939618 0  0.01528023503083844 0.01845923557506155 0  0.06625 0.02 0  0.07695012019230771 0.01624387078484555 0  0.03139091092855769 0.01320776147621796 0  0.03857339107781042 0.01675295051810485 0  0.001754993120977522 0.02590789105493891 0  0.002288757784711197 0.00412546923654445 0  0.07914382119690884 0.01404430049871201 0  0.001391810103286306 0.01257390899021902 0  0.0419501201923077 0.01614675005432421 0  0.001484375 0.007018229166666667 0  0.001484375 0.02201822916666666 0  0.048
[...]
<PointData  Scalars="concentration"> 
<DataArray  type="Float64"  Name="concentration"  format="ascii">9.8228578650154119e-01  1.0069572434867833e+00  9.9999999999999822e-01  9.9999999999999944e-01  6.6174449004242202e-20  4.2079810414523339e-20  -2.3039818096878814e-02  3.7940021337071049e-02  7.0772284192833990e-01  -4.0702848927071456e-03  9.9469983758817115e-01  1.0047207050772042e+00  -5.9859744945735590e-03  2.4119197689331825e-03  1.0012264623657894e+00  9.9984116624925690e-01  1.0913065365712219e-03  9.9981653877170240e-01  4.4789231350326458e-03  9.9679638866883769e-01  1.6150268751014531e-02  1.0016006080108943e+00  -6.9310577021177641e-03  5.2052170230442113e-04  1.0040749954781558e+00  1.5430663993510297e-02  1.0013726925119588e+00  -8.7535587293077158e-04  1.3021965563886492e-04  9.9680132833301971e-01  -3.0523472026567464e-03  6.4045695278127568e-03  9.9996600953775094e-01  5.7942945592803030e-01  5.5949143311899630e-01  1.0005445452942450e+00  5.5927601541582472e-01  1.0072030086364510e+00  5.9264325775420390e-01  5.7620724910930543e-01  1.0776197221399966e-02  9.9393668382168432e-01  6.1284216540617420e-01  6.5052635504058043e-01  2.4174492635186073e-02  9.8875684686020449e-01  3.9368207515830234e-01  5.7824563332304257e-01  5.6448493480063144e-01  -2.2209979821476584e-04  7.9134352307721378e-01  6.3023793345709767e-01  5.6195080410670273e-01  9.9836661098101309e-01  6.2770555317781390e-03  9.9982009759339441e-01  8.7596248096166773e-01  3.9572813261095474e-01  7.8437588159892635e-01  1.0594875272799962e+00  8.2234668503433916e-01  3.5665522576350874e-04  1.0051251410206941e+00  -2.3792628014123778e-02  9.9984383693263046e-01  2.9204374864545757e-01  4.7025397447616442e-03  -8.5168665572033266e-03  9.4560280296314281e-01  9.4228863539668459e-02  1.1047190056505560e-01  8.7435018517957763e-01  2.1886018723817113e-01  2.5289962724425329e-03  3.1767954940431921e-02  9.9954921744985437e-01  9.1383439003803701e-01  1.5110141163739670e-02  9.9999999999999933e-01  1.8083786696221609e-21  9.9008998489226741e-01  1.6706891205937185e-02  9.0431545736705987e-01  1.0018759579449199e+00  9.4333931906777979e-01  9.9546641260510083e-01  9.6866113500648632e-01  1.0014235374085723e+00  1.0003442847685728e+00  -7.1406329016667535e-03  1.5491070095633203e-01  6.4052398611035436e-03  1.0035460702770014e+00  9.8198218498147627e-01  2.2991146438073992e-01  5.1458228165502272e-03  8.4678651283010276e-01  9.9908660540167282e-01  9.3687142053142625e-01  -8.6744671810212153e-03  5.4563703881385997e-04  1.0051096848833831e+00  -6.1640686717281097e-03  8.0762129961773170e-03  1.0036470194303562e+00  1.4372512708550653e-01  1.6455103434201640e-01  1.4265289030055345e-01  1.0045149562721709e+00  1.0008745454692061e+00  9.9709427504728332e-01  1.0011159507667824e+00  6.7690226140754220e-02  3.7397140376854349e-02  9.7792870582539063e-03  9.6108978450316185e-01  9.3902945195195309e-01  3.8792517588154491e-03  1.2885061291004524e-03  -7.2494008840325030e-03  9.8762970474722966e-01  8.3235965879562418e-02  1.1555273475955501e-04  1.3886801515429478e-01  1.0183746038999961e+00  9.0656506360898892e-01  1.2817456191747578e-01  9.4227118715035796e-01  9.6096842624149370e-01  9.9719699584540811e-01  9.5491035615218267e-01  9.9760173291316245e-01  2.8482851501125186e-03  1.0012581771160489e+00  -6.9149226954807433e-04  -1.3736949969499995e-03  9.9138556611035711e-01  -9.6571480912613396e-03  8.0565253597617743e-03  9.9209547024151445e-01  1.5950664160533076e-01  2.5222041292298835e-02  -2.1375243129709055e-02  9.9586472040137486e-01  9.9608089404962830e-01  1.0060092214619540e+00  9.8538953301308663e-01  9.0263827284474640e-01  -1.2292980007184806e-03  7.1146853766842633e-01  3.1106741131719049e-03  9.9879331184820885e-01  1.1471724723946938e-01  -1.7464377517836881e-02  5.6232902123060191e-01  1.1428590445911507e-01  -4.0885684442133023e-03  9.9885490082312456e-01  -3.3347693039057487e-03  9.9411323876766289e-01  6.5791416927488258e-02  1.0115952440677105e+00  1.1219161958984840e-01  -1.7177479661092732e-02  4.6217984086958197e-01  1.0015828687921213e+00  3.5802606867564440e-01  6.1212611735298461e-01  5.6583820850206445e-01  3.5492158044487597e-02  9.9934521571382562e-01  9.9706089126902575e-01  1.3508111529226285e-01  9.6304726147471653e-01  3.1049635280154367e-02  9.5018476285478692e-01  9.8046481661730367e-01  -6.1810082674713454e-03  4.2998418919491355e-02  5.2418753969220147e-02  -2.7373260985866068e-03  9.6422855493970627e-01  7.1585155078818019e-01  6.9428504135918223e-01  5.5412377239351196e-01  9.8123112955456038e-01  9.5601137221004651e-01  1.0099863212008555e+00  9.1734309602993114e-01  3.8130622516411689e-01  7.1665579981911010e-01  5.6526308025371219e-01  1.0095145530997258e+00  4.2209951331536683e-02  5.2569279589711082e-01  7.3954241631359785e-01  2.3150371724784471e-01  9.9187214238026489e-01  1.1159922191281172e-02  6.5274887236930923e-02  8.8950472187892898e-02  5.8055019159450227e-01  -1.4033398419280863e-02  9.9971291678697183e-01  8.1609068984669214e-03  1.9563419248120863e-02  5.9609946838454086e-01  1.0025522995227669e+00  1.0003483337323178e+00  8.8802920683478404e-01  2.6813538571462685e-03  -1.9235365479290529e-04  1.7609128355339171e-03  -4.6795831075987994e-04  9.9454782804486819e-01  9.9804142068398938e-01  1.0008364175266926e+00  9.8095916232746538e-01  3.1522487991667969e-01  9.9960782399376791e-01  1.0410950662007123e-02  -7.4326224417845389e-04  1.0077331571575605e+00  1.0020406951316629e+00  9.7856587325398026e-01  1.5515046214195232e-02  2.1345552396258804e-02  5.6523679360768131e-01  5.8007682702457397e-01  8.8405028784796470e-04  9.9791830891739763e-01  9.9973427478586896e-01  2.0941999435651462e-02  2.9819289668674864e-01  3.0839089670570807e-01  9.9896987685095739e-01  -8.6617508439232979e-02  -2.1851228790265283e-04  1.0001352641058312e+00  8.0221878633652322e-01  1.7879984445464205e-02  1.4795113266289977e-03  1.5524457916039174e-02  3.0452298168249209e-01  9.6269995952673781e-01  8.9977003112765563e-01  -2.7262789391570485e-03  6.1756421375276604e-01  6.6905434807366604e-01  1.0025577437939281e+00  1.0013812032068310e+00  9.9758121443054637e-01  1.0003969536480899e+00  9.9471873416533307e-01  7.8850098043059580e-01  4.0316252523611006e-02  8.8330498624072273e-01  1.0198561003746687e+00  9.3376138433816402e-01  1.4812427648844803e-01  3.0076852224106165e-01  3.4924632381550670e-02  5.0766332114426008e-02  1.0009797104982610e+00  -4.9586883028551075e-03  6.9494600008306473e-01  1.0036457304942810e+00  9.8752267073446776e-01  9.9131783943542717e-01  9.8519202819276719e-01  9.5981759151426926e-01  6.8135794548356654e-01  8.2578809274545706e-01  8.5527300022983277e-01  6.9204547403226235e-01  1.2824717244300868e-01  9.9500454834522001e-01  9.9044575855939709e-01  5.6181864091645446e-02  2.4532472235192512e-01  8.2492602286141259e-01  9.7568175089634723e-01  9.2321240440487746e-03  4.6842990963086872e-01  9.9816103420629254e-01  -1.6330017181135109e-02  8.5965499150814032e-03  1.0202253799153092e-02  2.4458091320066280e-03  -5.2560259725944383e-03  9.9938058332395929e-01  3.7647888626254117e-01  -1.6223006136606651e-02  8.0405540085927174e-01  1.0057781045357304e+00  3.2237090080613734e-01  9.4390237236586427e-01  9.9373545196535229e-01  9.8736944115962377e-01  7.1408600384356746e-01  -1.7102636835376319e-03  -6.1479710656047962e-03  3.7791301566742408e-01  9.4976514840838799e-01  9.9999999999999922e-01  -2.2301063862951981e-04  8.0572762121407226e-01  -2.7486542993323617e-02  5.3231398801640351e-02  1.0047641317012166e+00  9.9964218996941767e-01  7.8151602125736874e-01  1.2176027726814836e-01  9.4029645186548694e-01  1.0002214264717089e+00  -7.1072028532212264e-05  3.7712258607966037e-01  -2.9476124595365281e-02  8.5008001157771051e-01  2.1635535884266350e-03  1.0056981532880356e+00  2.1528495386849375e-01  1.1654663702766762e-02  1.0208021129194427e+00  3.2862535848676594e-01  1.5743873695070268e-01  1.0350096208787116e+00  2.9571323016330903e-01  8.9843415998675713e-01  2.8399115142386094e-01  3.2588792479851764e-01  -2.8515739149867904e-03  8.8520849163724458e-01  1.8028365678743075e-01  7.0791948862582402e-02  -2.3443369368215106e-02  -1.2131745152971917e-03  4.3633557345648614e-03  -6.3890776034374042e-03  1.8477471245954666e-01  3.5805595253453149e-01  4.7093036552989069e-02  9.9907069473254539e-01  1.4971479321341430e-03  4.0815517958950019e-03  -8.1241929394907687e-03  9.9970065296580279e-01  2.1469712402290425e-01  1.0345759091363045e-01  9.8882994766938415e-01  8.8226100455862200e-01  9.1013380836662905e-01  9.9478591665376315e-01  9.8297669351801320e-01  9.9159080797651067e-01  3.1831600425923593e-03  7.0291951829540506e-04  1.7630614839920063e-02  9.9731463759444516e-01  9.7610048881078415e-01  8.4725421186838656e-01  8.0229288223695017e-01  9.9759757974573371e-01  1.0013693955434402e+00  2.8147809216884340e-01  9.9680542830497687e-01  9.9695947212504110e-01  1.0041717672044208e+00  1.0046163444332901e+00  1.0019634611945551e+00  7.5220452733794241e-01  8.8902637707670973e-01  6.8588782556250416e-01  5.1648024481084742e-01  -4.6479168933425637e-02  3.9779006133889704e-02  3.9923464373324397e-01  9.0831476580356307e-01  9.8751129426686080e-01  7.4209209850969371e-01  -2.1346086619242682e-04  9.9847506091037264e-01  1.5733868074792384e-01  2.3177541575501354e-02  4.9310432210433547e-02  1.0009581446452496e+00  -8.5434942342089790e-03  9.9787803117484530e-01  9.1430484492732189e-01  7.8862831486986873e-01  1.0626205671716196e+00  7.2362910005322528e-03  -8.1198316877785105e-03  9.7925377953416115e-01  -1.0196816112098739e-02  4.1778040829856068e-02  9.9796945998145792e-01  6.9735415611427187e-01  9.9902904275765403e-01  1.0020393995758845e+00  2.5147668243477356e-01  9.0248036487999883e-01  -4.0261818843962217e-02  1.0112984654598139e-01  9.9991992923563278e-01  -6.6125461437284113e-04  9.9960872320827732e-01  8.2778697391452920e-03  2.7294364844578589e-01  3.2300077656336940e-01  -1.7362819512323015e-02  7.2902628423073401e-01  9.9872827359576555e-01  -4.7894593275789373e-03  1.0411673273963151e+00  6.2859302631101482e-02  2.6226249975120262e-02  9.9373769016690960e-01  9.9330574810234984e-01  1.0020397845354363e+00  -1.9658833586165714e-02  9.9105344388269623e-01  8.9369790523305667e-02  6.2543559740315634e-03  5.6473198252453526e-03  -5.8006279596216391e-03  8.1353639258769062e-01  2.9851769952133317e-01  -1.5720044549795988e-03  -2.0763045316684425e-03  9.9928512430846517e-01  8.7568587876983905e-01  9.5336946713386206e-01  3.3417638505551135e-02  4.3051745643015570e-03  9.2059392774381688e-01  9.9508537869240576e-01  9.9691297574716953e-01  9.7742009477947744e-01  1.0030340457025519e+00  2.2290008557777869e-02  3.0403057665843936e-01  1.6216915245904981e-01  -7.4443591889795067e-03  8.3675084482372863e-01  -1.1533086686700804e-01  1.0124009601481367e+00  9.9672915396362927e-01  9.9809410388716979e-01  9.9003280350907963e-01  9.9754652730839666e-01  9.9604143378687127e-01  3.2513029513236138e-03  9.9791670120240406e-01  8.0920569608111526e-01  9.5387722960608660e-03  1.1883275183729707e-02  -2.2660372824574912e-03  9.8595015382658446e-01  1.0023525013986201e+00  -2.2013456491693072e-03  -7.1666172543768903e-03  9.9776652906186669e-01  2.2050056614831150e-02  1.8223741471074108e-02  9.1343479412378126e-03  1.0042361074068109e+00  9.9095343320142215e-01  1.0008850540056722e+00  7.6289084871996349e-01  1.6007345002625420e-02  1.8793765964294884e-02  1.0015124530314008e+00  -9.8210367478574947e-03  9.9753363003916928e-01  -5.0852465536350695e-04  4.5992045663953672e-03  -6.2328661412002556e-03  -1.8991253004417807e-19  -3.5342751787355048e-04  6.1977405042686225e-04  1.0000000000000013e+00  -1.1215518746169704e-19  1.4552436010653612e-02  1.0237663894450719e+00  1.0095686273002080e+00  3.3674290371109245e-01  9.9848825149819920e-01  3.0554577923602405e-01  1.0011733105303136e+00  1.0044541079894000e+00  5.2038320031090515e-03  9.9894200624978979e-01  1.0484561934363845e-02  1.0023345980278975e+00  9.7069372846684565e-01  9.9901017975654227e-01  9.9874973863370597e-01  5.6246805264495725e-01  2.8682068909438946e-01  1.0005923037149939e-01  1.5105099474737996e-02  -2.4694600012690219e-03  1.0806795576895863e-01  -2.4718161463583390e-03  1.0016509243833775e+00  -5.4460971580489520e-03  1.0062443080909200e+00  9.9056427734485486e-01  6.4273946896482470e-02  8.7018977810993592e-01  1.0022658123343273e+00  9.6714541312921709e-01  3.8469063675152260e-01  -7.4616089016555504e-02  -6.7205237353281837e-03  1.4957616762123532e-01  4.4729469607172639e-01  9.8439603911673268e-01  1.9682979488948091e-01  7.5241003424176819e-02  1.6300295857875996e-01  6.1715132218296798e-01  9.9163980028853627e-01  9.4904507409693639e-01  9.9933166107815374e-01  9.9226456390665752e-01  9.7950956340439277e-01  1.2020515645167758e-03  9.8575295541906549e-01  -9.0515805083382650e-04  1.0081193950273752e+00  9.9930473037079115e-01  6.1804243440446172e-01  3.3228498557325514e-01  8.6458867859982181e-03  1.3087753556474341e-01  3.4313906817279882e-01  9.9674830657162194e-01  9.3772157613678786e-01  8.5789823842056190e-01  9.9850788432154569e-01  -1.7956077029174029e-02  1.5318366320565349e-01  4.1793034802275736e-01  3.6876529362221810e-01  1.5796035338134777e-02  3.3539115349951326e-02  5.0483775904309733e-02  9.6627207860834896e-01  7.6937921909671358e-01  3.7851961373796339e-01  1.0016341820324985e+00  8.0103290773372848e-01  9.5772050807114817e-01  9.5376761754760708e-01  5.4848507355249442e-03  9.4647935143628315e-01  1.0068271452692366e+00  1.6678687948172610e-01  -2.1946457162680134e-04  1.0191631593465846e+00  2.9270509510094284e-01  3.8866641469215280e-01  9.8538057996648043e-01  1.0047857584507249e+00  -2.0976152368678724e-02  8.0115697301546196e-01  8.9377775423310923e-01  4.8861649003077534e-01  9.0764119014632549e-01  1.6254202316961799e-01  3.6521056936311425e-01  9.9960539787702829e-01  6.4893845495074243e-01  9.3895166339230463e-01  6.5198219795436108e-02  6.3683781675229190e-01  -1.4010253268127446e-02  -1.6759853768023613e-03  1.5079330296399918e-01  2.7212959605237511e-02  -8.4934312547595044e-03  1.0075523119329812e+00  9.9881458291342762e-01  9.5451665191718571e-01  1.0048310428318683e+00  4.3577603103621215e-01  -1.1476875346956334e-04  5.1001402998382928e-01  3.4817507057502298e-04  -1.0836632486946855e-02  9.8947879479981371e-01  1.1330196660927487e-01  2.6011215398814030e-01  9.8665944714848719e-01  -2.7231848824184609e-02  2.4138446279337668e-02  7.5580893674452176e-01  4.8825926015081372e-01  9.9990362379661590e-01  7.1170802423741808e-01  1.3339313586458032e-01  1.3303509017055334e-01  2.7575695615615087e-03  6.5115918219212676e-01  5.5034633723072190e-01  1.0003671376047862e+00  -4.4437555642204314e-03  -8.3623073126361993e-03  9.9316737442106462e-01  1.6951025924487406e-01  9.9495811379267707e-01  9.9043734810920436e-01  9.9912730556375118e-01  9.9640198884261522e-01  9.8032906364885952e-01  8.0069896208630020e-01  3.5576514125558067e-01  7.5527153906493560e-01  9.3523379094964595e-02  3.1986797847926229e-01  1.4270097988829791e-02  5.4820548338233033e-01  9.9758564929087867e-01  9.9568635882004375e-01  1.0009339293408317e+00  4.7626327349635142e-04  9.9324762433651881e-01  9.9988059653053663e-01  5.6652964727463262e-01  5.0291077294361175e-01  1.0124977191751812e+00  3.0237348315583845e-01  2.5293463159286478e-01  1.0006152483105897e+00  1.0026367690361215e+00  2.7794931677490111e-02  9.9877333655539591e-01  -2.3663256501441268e-03  1.1122196459657055e-02  -4.0546378758596416e-03  9.9779574864540843e-01  9.9571078810886282e-01  -6.3501353194904504e-03  9.9798813550771970e-01  9.9784937429234444e-01  9.8821540994535717e-01  3.9333081316182961e-01  8.2999798547436854e-01  9.9893340995121183e-01  3.5046096228078419e-03  -1.3781874583010065e-02  -9.4177407427596220e-03  1.0084807222895249e+00  1.0103223450266470e+00  3.0192449112797632e-02  3.3690029218799400e-01  7.9273946168151499e-01  1.4934785223411545e-01  2.7633409518121498e-02  3.0476910292135343e-02  5.4655109323078233e-01  3.0855026388242623e-01  7.6142490343755331e-01  -6.3735832528398243e-05  1.1191229108274227e-01  1.5868832328984967e-02  1.0010316109361470e+00  7.4262352288016353e-01  9.8270524818828109e-01  7.1891382092524636e-01  4.2815634463973518e-01  2.8949352449571680e-02  2.4963605340465891e-02  1.0383990675577942e-01  1.3985674810551005e-01  -1.5869672328300013e-03  -5.4289189688815249e-03  3.3508144614638430e-03  9.9149908621158089e-01  9.9646659665449566e-01  9.1332827558391105e-01  8.7586624968997995e-01  1.0280321032273083e+00  9.9693285948728771e-01  7.4893505940111182e-01  1.0018578056858871e+00  9.5565786401635511e-01  9.2070730507505349e-01  6.4265846989257058e-01  1.0602146410927142e+00  1.0233494724789307e+00  4.6033764645753406e-01  9.3776556735763339e-01  8.3838472499870609e-01  6.2727296776558117e-01  9.2162491846123984e-01  9.7346526034746927e-01  8.4980019855699807e-01  9.6114596140471886e-01  9.5693827151641797e-01  5.9378455312952849e-01  9.9889364809183090e-01  5.6619466424804177e-01  6.7126554429062069e-01  6.0692227025797026e-02  9.9719496800173590e-01  7.4858850528971810e-01  -4.9063295604569720e-05  7.1627818626169948e-01  7.8253780192009625e-01  -5.5425870887091406e-03  3.8550897347616558e-01  1.0002273055237207e+00  1.0148558817564430e+00  1.0035956350210311e+00  1.3168756674157582e-02  5.9153533717921022e-03  9.6046514006299555e-01  1.1998390475391998e-02  1.0071713941928553e+00  1.0057358987176110e+00  -7.2188662683456330e-03  8.1842189374399618e-02  3.1099250156597424e-02  1.0451069366460140e-01  3.4285198126143945e-02  9.9985083944538455e-01  5.4489364720762534e-01  3.5530461409264819e-01  8.2990328886610476e-01  7.4538832910654551e-01  2.9533047612231345e-01  3.2234980759658721e-01  -3.9414705946836624e-03  -1.8050430444582492e-03  4.6286189494090406e-02  5.0505435883508691e-03  1.0696972675511892e-03  -5.7378147897465719e-03  1.0009544615593235e+00  1.8532301327768830e-02  1.1726309994591808e-03  5.0873861929608879e-03  1.4028991760226467e-01  -2.1080682524164410e-02  8.4373579856533454e-01  3.7283483061563949e-01  9.6444581849522504e-01  -1.3414571918565616e-03  -6.3393518808680660e-03  4.1098167390874968e-01  7.0799544418734817e-01  -8.3613038491702743e-04  9.9678246565301909e-01  1.0008880945408096e+00  9.6610035914570147e-01  -4.4556479301087942e-02  -8.4232171089884764e-04  1.0025833598037308e+00  4.7886977894168253e-01  9.9505279343018216e-01  9.9644080355731868e-01  1.0012350607283493e+00  6.1799549778724128e-01  9.6745859403771628e-01  8.0988931482627036e-01  3.2215569481243238e-03  9.9606830684381376e-01  1.0028507910250912e+00  2.5259179290126315e-02  4.9945640415603176e-01  -9.3097221769262756e-04  -4.6930113595821154e-03  2.6429933034667279e-02  1.3725897699365888e-01  9.9915919483914228e-01  9.7888746639439272e-01  1.0028591042150778e+00  2.8183946280509464e-01  8.4602268387632157e-02  1.0047259363912933e+00  2.6442222534289725e-02  9.9767724732779628e-01  -4.3980933675715828e-04  -2.4901283562397434e-02  9.8909651904240303e-01  6.1540207327798529e-03  1.0062352939389436e+00  9.9750584728740144e-01  7.2185994097312878e-01  2.3740924538116412e-01  -5.8689304794125770e-03  9.0666678357129049e-01  9.0884240143347161e-01  9.8438660086975127e-01  9.7585096206667088e-01  8.5820146116713747e-01  9.9854253207965493e-01  1.5272107258749917e-01  2.2485676055240689e-01  7.4682720057549767e-01  9.9653864650969715e-01  9.9888198183147026e-01  8.9682099184854203e-01  2.4115133708305352e-02  -1.8285084332161073e-03  9.2877502875003695e-02  7.6662809872051840e-01  7.0431695574817876e-02  3.0559935297353624e-04  5.1458901933349226e-02  5.4698750268840068e-01  1.8100920585375327e-01  8.9777246665180069e-03  -2.4953288611576263e-03  3.4885765722341834e-03  9.9029813817639623e-01  -2.8332542907824674e-03  1.0184341824804639e+00  8.1924843396596767e-02  1.0011624139999828e+00  1.0015382590043984e+00  1.0051