<?xml version="1.0"?>
<VTKFile type="UnstructuredGrid"  version="0.1"  >
<UnstructuredGrid>
<Piece  NumberOfPoints="1079" NumberOfCells="1944">
<Points>
<DataArray  type="Float64"  NumberOfComponents="3"  format="ascii">0.08500000000000001 0.02 0  0.005 0.02 0  0.005 0.03 0  0 0.03 0  0 0 0  0.005 0 0  0.005 0.01 0  0.08500000000000001 0.01 0  0 0.015 0  0 0.0075 0  0 0.0225 0  0.04500000000000001 0.02 0  0.04500000000000001 0.01 0  0.025 0.01 0  0.025 0.02 0  0.065 0.02 0  0.065 0.01 0  0.035 0.02 0  0.035 0.01 0  0.07500000000000001 0.02 0  0.07500000000000001 0.01 0  0.015 0.02 0  0.015 0.01 0  0.05500000000000001 0.01 0  0.05500000000000001 0.02 0  0.07000000000000001 0.01 0  0.07000000000000001 0.02 0  0.05 0.01 0  0.03 0.01 0  0.03 0.02 0  0.04000000000000001 0.01 0  0.01 0.01 0  0.02 0.02 0  0.06 0.015 0  0.08500000000000001 0.015 0  0.05 0.02 0  0.07250000000000001 0.015 0  0.04000000000000001 0.02 0  0.03750000000000001 0.015 0  0.0525 0.015 0  0.02 0.01 0  0.01 0.02 0  0.0275 0.015 0  0.0125 0.015 0  0.08000000000000002 0.01 0  0.08000000000000002 0.02 0  0.0325 0.014375 0  0.04291666666666667 0.015 0  0.065 0.015 0  0.005 0.005 0  0.005 0.015 0  0.02208333333333334 0.015 0  0.07791666666666668 0.015 0  0.005 0.025 0  0.06 0.01 0  0.06 0.02 0  0.01729166666666667 0.01572916666666667 0  0.04770833333333334 0.01427083333333334 0  0.06875000000000001 0.01625 0  0.008750000000000001 0.01625 0  0.05625000000000001 0.01625 0  0 0.00375 0  0 0.01875 0  0 0.01125 0  0 0.02625 0  0.08145833333333334 0.01354166666666667 0  0.0675 0.01 0  0.0075 0.0125 0  0.0625 0.0175 0  0.0575 0.0125 0  0.0625 0.0125 0  0.08207465277777778 0.01707465277777778 0  0.06767857142857144 0.01321428571428571 0  0.0175 0.01 0  0.01875 0.01291382575757576 0  0.0475 0.02 0  0.04564168086314595 0.01679860519591141 0  0.00296875 0.0125 0  0.0025 0.03 0  0.0025 0 0  0.00296875 0.0175 0  0.01521990740740741 0.0132349537037037 0  0.0497800925925926 0.0167650462962963 0  0.0325 0.02 0  0.03474264705882353 0.01674632352941176 0  0.03750000000000001 0.02 0  0.03025735294117647 0.01674632352941176 0  0.0275 0.02 0  0.0525 0.02 0  0.0125 0.01 0  0.04020833333333334 0.01322916666666667 0  0.03750000000000001 0.01 0  0.0225 0.02 0  0.02479166666666667 0.01677083333333333 0  0.07520833333333335 0.01322916666666667 0  0.07250000000000001 0.01 0  0.07520833333333335 0.01677083333333334 0  0.07250000000000001 0.02 0  0.04020833333333334 0.01677083333333333 0  0.0225 0.01 0  0.02375 0.01262152777777778 0  0.04250000000000001 0.02 0  0.04250000000000001 0.01 0  0.07750000000000001 0.01 0  0.07750000000000001 0.02 0  0.05036151960784314 0.01294424019607843 0  0.0705560064935065 0.01284699675324675 0  0.05458333333333334 0.01291666666666666 0  0.0021875 0.024375 0  0.005 0.0275 0  0.01125 0.0175 0  0.01463848039215686 0.01705575980392157 0  0.01 0.01375 0  0.03625 0.0125 0  0.0021875 0.009375 0  0.05375000000000001 0.0175 0  0.07125000000000001 0.0175 0  0.005 0.0025 0  0.0021875 0.005625 0  0.02655220103578155 0.01234889948210923 0  0.002187499999999999 0.020625 0  0.02979166666666667 0.01302083333333333 0  0.0525 0.01 0  0.07895833333333334 0.0125 0  0.01994277885235332 0.01704213007736944 0  0.07934656179076068 0.01733823814273861 0  0.04505722114764669 0.01295786992263056 0  0.06625 0.0175 0  0.006250000000000001 0.0175 0  0.05750000000000001 0.02 0  0.05875000000000001 0.0175 0  0.005 0.0225 0  0.005 0.0075 0  0.002375 0.027375 0  0.002375 0.002625000000000001 0  0.0475 0.01 0  0.0175 0.02 0  0.0325 0.01 0  0.03375 0.0121875 0  0.04261299435028249 0.01749205508474576 0  0.08500000000000001 0.0125 0  0.08250000000000002 0.01 0  0.02121963399965531 0.01224824108143494 0  0.0675 0.02 0  0.0125 0.02 0  0.02720152243589744 0.0175 0  0.03715165441176471 0.0175 0  0.08500000000000001 0.0175 0  0.0275 0.01 0  0.0025 0.0149560546875 0  0.0075 0.01 0  0.0075 0.02 0  0.06526785714285716 0.0125 0  0.01281031447005516 0.0125 0  0.0625 0.015 0  0.06 0.0125 0  0.05750000000000001 0.01 0  0.0625 0.02 0  0.0625 0.01 0  0.08250000000000002 0.02 0  0.04260103740101855 0.01252623201412851 0  0.02240052247582197 0.01750164767101344 0  0.07293583459427785 0.01238479732953041 0  0.005234374999999999 0.012265625 0  0.03528131980640358 0.01454684009679821 0  0.0325 0.01760027210036557 0  0.02532593822924343 0.01428227733767297 0  0.08009952069819683 0.01527145502895417 0  0.01987282359856536 0.01482587683689801 0  0.04828232595121382 0.01210233572595705 0  0.01671767404878618 0.01789766427404295 0  0.05125 0.01829007549029352 0  0.05247215456215357 0.01288882122882024 0  0.07338729919678716 0.01799385040160642 0  0.03838729919678716 0.01200614959839357 0  0.07717482110586968 0.01780301674207099 0  0.04771860040890012 0.01773306039388322 0  0.03125 0.01160380747126437 0  0.06875000000000001 0.01154265873015873 0  0.07625000000000001 0.01154065860215054 0  0.01625 0.01153997817696946 0  0.068125 0.018125 0  0.05437500000000001 0.015625 0  0.066875 0.015625 0  0.07039794950204951 0.01494384850614853 0  0.05687500000000001 0.018125 0  0.006875 0.015625 0  0.008749999999999999 0.01833333333333333 0  0.010625 0.015625 0  0.05625 0.01416666666666667 0  0.05812500000000001 0.015625 0  0.0449088595298192 0.01494528408816316 0  0 0.016875 0  0 0.013125 0  0.04962452342047931 0.01478673066448802 0  0.0153754765795207 0.01521326933551198 0  0.0771774565913315 0.01322498191305479 0  0.01857756431135545 0.01840228599899994 0  0.04642243568864456 0.01159771400100006 0  0.08125000000000002 0.01155637254901961 0  0.08317650804863432 0.0118234919513657 0  0.08288217288011697 0.01511353252923977 0  0.02837253504384828 0.0117177464035174 0  0.03896057962520807 0.01831163685754031 0  0.01125 0.0114244162490927 0  0.00935910490099115 0.0119067901980177 0  0.02946078431372549 0.01495404411764706 0  0.02875 0.0185829434466942 0  0.002968749999999999 0.0225 0  0.064375 0.016875 0  0.00296875 0.0075 0  0 0.001875 0  0 0.005625 0  0 0.009375 0  0 0.020625 0  0 0.024375 0  0 0.028125 0  0.06062500000000001 0.01812500000000001 0  0.008303571428571429 0.01446428571428572 0  0.01375 0.01865917058160413 0  0.05137790313978056 0.01143372888932909 0  0.04125000000000001 0.01131513063942604 0  0.04101690263896279 0.01844430285842771 0  0.02399563533148224 0.01844349395710867 0  0.08125000000000002 0.01868815426145731 0  0.05354684380692146 0.01145463537600848 0  0.01699195823639423 0.01315138909884649 0  0.07598357371794873 0.015 0  0.04098357371794872 0.015 0  0.003744047619047619 0.00375 0  0.003344630281690141 0.02580853873239437 0  0.04625 0.0187354532243972 0  0.06388392857142858 0.01138392857142858 0  0.06375 0.01375 0  0.05875 0.01375 0  0.06375 0.02 0  0.00622802734375 0.01372802734375 0  0.003630681818181818 0.001369318181818182 0  0.003630681818181818 0.02863068181818182 0  0.06125 0.01625 0  0.06125 0.01125 0  0.05625000000000001 0.01 0  0.05875 0.01125 0  0.06125 0.01375 0  0.08337864763241221 0.0183786476324122 0  0.05213634138653413 0.01674432930673294 0  0.04375000000000001 0.01 0  0.07424178685897437 0.01529258578431373 0  0.03924178685897436 0.01529258578431372 0  0.03410139294454583 0.01843406022904556 0  0.03089860705545417 0.01843406022904556 0  0.02094160484316717 0.01850229584291991 0  0.04375000000000001 0.02 0  0.04437042160883325 0.01820701498672512 0  0.04816311705429156 0.01600061344661149 0  0.07151224904251052 0.0114127410511319 0  0.04395528506193162 0.01639387970349481 0  0.0128750358694518 0.0167500179347259 0  0.02855808448399799 0.01642839899839741 0  0.02812690373330794 0.01340955081400569 0  0.08358500641945087 0.01351822349116885 0  0.05590277777777778 0.01173611111111111 0  0.06683110430364615 0.01164926404662283 0  0.02573206694914602 0.01842532451809762 0  0.01438126661842046 0.01166701193099454 0  0.02384283211216029 0.01526549696571563 0  0.03625 0.02 0  0.004609375000000001 0.0182421875 0  0.003398437500000001 0.01943359375 0  0.001728307845744682 0.01894718251329787 0  0.004377805359085963 0.01656966216675735 0  0.04649673309852075 0.0153889662370871 0  0.03615513600614297 0.01592654988586041 0  0.03316985071935832 0.01598763605018279 0  0.03110111603888768 0.01529816275177977 0  0.01370614113484869 0.0138804542047638 0  0.04930041102671841 0.01842260568883502 0  0.07875000000000001 0.02 0  0.0745395359848485 0.01165101111925709 0  0.03860755698543604 0.01373741558556884 0  0.02605038706571737 0.01573944002207753 0  0.07559826163500957 0.01841729376139847 0  0.04437500000000001 0.01149157931286774 0  0.06874116707361365 0.01454618473032123 0  0.003761917372881356 0.0239307468220339 0  0.003984374999999999 0.01125 0  0.003768503289473684 0.01392539576480263 0  0.001796875 0.0111328125 0  0.003761917372881356 0.008930746822033899 0  0.005 0.00625 0  0.003761917372881355 0.0210692531779661 0  0.06633928571428571 0.01410714285714285 0  0.006484375 0.01125 0  0.08364120589325512 0.01657288979763549 0  0.03576267476503373 0.0184116442851204 0  0.07370875846579374 0.0137848203678562 0  0.06964285714285715 0.01758928571428571 0  0.05520833333333334 0.01833333333333333 0  0.06491071428571429 0.01839285714285714 0  0.0510098951944636 0.01559941474766356 0  0.01786087179886325 0.0115702210443714 0  0.01972197383235524 0.01160576093166696 0  0.01804697593127788 0.01433503795474974 0  0.001644074528704677 0.01642892723865279 0  0.00125 0.03 0  0.001497685185185185 0.001267746913580247 0  0.07315451164202422 0.01643443118912983 0  0.001233906745910645 0.0140625 0  0.01162635071030191 0.01362229857939618 0  0.01528023503083844 0.01845923557506155 0  0.06625 0.02 0  0.07695012019230771 0.01624387078484555 0  0.03139091092855769 0.01320776147621796 0  0.03857339107781042 0.01675295051810485 0  0.001754993120977522 0.02590789105493891 0  0.002288757784711197 0.00412546923654445 0  0.07914382119690884 0.01404430049871201 0  0.001391810103286306 0.01257390899021902 0  0.0419501201923077 0.01614675005432421 0  0.001484375 0.007018229166666667 0  0.001484375 0.02201822916666666 0  0.048
[...]
<PointData  Scalars="concentration"> 
<DataArray  type="Float64"  Name="concentration"  format="ascii">5.8711831517146806e-01  9.9999903097604981e-01  9.9999999999999845e-01  9.9999999999999978e-01  5.6797985175912841e-25  3.2099110294437046e-24  -1.0176505461030352e-04  4.8547624878048523e-01  5.8363083670111027e-01  8.0308653160794250e-06  9.9999936209399942e-01  7.1236204149112747e-01  3.5969735537373826e-01  2.0434316651474216e-01  8.5667493109538506e-01  6.3157762928083594e-01  4.4006994943054811e-01  7.7418028245357007e-01  2.9259552741637029e-01  6.0624313080061765e-01  4.6645477373441346e-01  9.5383023359710373e-01  8.3693948661785228e-02  4.0638988969191309e-01  6.6566352101867288e-01  4.5449514846259831e-01  6.1849365252363386e-01  3.8461096265547690e-01  2.5099128153148575e-01  8.1301018404057801e-01  3.2970955835059745e-01  2.4202586770684962e-02  9.0393860041147966e-01  5.3658067102182994e-01  5.3633340328359969e-01  6.8728079125734487e-01  5.3628710120763545e-01  7.4122080522130529e-01  5.3748996143324401e-01  5.3639619579804931e-01  1.4958340656401209e-01  9.9265042152660543e-01  5.3993406463815408e-01  5.5918532911271590e-01  4.7637420416594717e-01  5.9630175015329157e-01  4.8472100250862260e-01  5.3692235031342894e-01  5.3635979684657753e-01  -7.5934257133006397e-09  5.8774386924459243e-01  5.4385800697775566e-01  5.3632378744928544e-01  9.9999999732349509e-01  4.2519604798103311e-01  6.4736936208614804e-01  6.5118981568489842e-01  4.9773257553991929e-01  5.7041956540357441e-01  8.1680003188579664e-01  5.8715623399723216e-01  3.4558656000467934e-08  9.9781385469254147e-01  9.1168151258747762e-03  1.0000000002459879e+00  5.0973728280725705e-01  4.4834740637829296e-01  8.1630136248913410e-02  6.1300944258464229e-01  4.4767260094736239e-01  4.6027860102912516e-01  5.7173330991375171e-01  4.8756705909015174e-01  1.1706240102833074e-01  2.8403252513227462e-01  6.9991855240914902e-01  6.3390787946339200e-01  4.2377634707329921e-02  9.9999999999999867e-01  1.2612276890626317e-25  9.9302717424588094e-01  2.8980635704979107e-01  6.2095459628773020e-01  7.9322752519497941e-01  6.6910822635280653e-01  7.5741611702981548e-01  6.8939992465519973e-01  8.3620323038878341e-01  6.7596790273792506e-01  5.0737904875674263e-02  4.2285446731656329e-01  3.1311371004933064e-01  8.8193716143235834e-01  7.2008862519590355e-01  4.9764509751230096e-01  4.6046491488074870e-01  5.7488771395847382e-01  6.1195778774030340e-01  6.5041250380403859e-01  1.7877636280106995e-01  2.9403591023765174e-01  7.2679421238604403e-01  3.4423074498759532e-01  4.7061617272549561e-01  6.0136820912804456e-01  4.4213776924431331e-01  4.8360437823228469e-01  4.5252068185054006e-01  1.0000000180501849e+00  1.0000000002364353e+00  9.1221657158240010e-01  8.3026763498343126e-01  3.1434618433687750e-01  3.6423086808749311e-01  4.7672108981965007e-05  6.3579803605753060e-01  5.9463281156059122e-01  3.4457528923269842e-09  -4.4782757726365277e-07  2.9430554910648971e-01  9.9999779641885600e-01  3.6445210543864226e-01  3.9630795144152803e-01  4.9030412886910485e-01  7.7972581485534764e-01  5.7947433919043290e-01  4.2611223532990011e-01  6.0385854220735236e-01  9.7964431825712894e-01  6.5711465666488411e-01  6.2215853037858093e-01  1.0000006482641142e+00  -3.4038609346857662e-07  1.0000000001372273e+00  -1.6420777949763403e-08  3.7300223245807901e-01  9.2957531358287759e-01  2.7567719888629594e-01  3.3515960256325150e-01  6.7728367498266373e-01  4.9911152732758141e-01  4.8073765530681251e-01  2.4210767074162079e-01  6.2444237586879392e-01  9.7435206250606388e-01  7.6195425963264263e-01  7.0083970494944337e-01  5.7343342585540713e-01  2.3073456020304375e-01  5.7862261301260176e-01  3.5540701392359512e-03  9.9976108043022371e-01  4.6626340595792776e-01  1.7195203516419871e-01  5.3641364203611741e-01  4.5488053558389863e-01  4.1557555349564518e-01  6.3989629794614900e-01  4.3310330034837319e-01  5.9188774599380956e-01  3.9711428170319535e-01  7.9857706180749477e-01  4.7906939634411166e-01  2.6388058287286825e-02  5.0140390155630676e-01  7.3294440397458793e-01  4.6298626358490663e-01  5.4183432391810127e-01  5.2427455575675197e-01  4.0439225023623238e-01  8.7995025168191443e-01  6.6480043740284434e-01  4.4605710429700635e-01  5.9819259798824709e-01  3.5525401250014288e-01  5.8924154298574605e-01  6.6492050611212627e-01  2.9365182144938146e-01  4.5913329159384092e-01  4.7501778933922473e-01  1.4184735294809817e-01  6.1096444818737283e-01  5.6412015228860035e-01  5.5505568622836010e-01  5.3489472722996600e-01  6.4134731296818004e-01  7.2724396564297100e-01  9.8038621446392438e-01  6.8301701772125833e-01  5.0225176284180262e-01  5.6089813590494109e-01  5.3376905377238049e-01  9.3610661525905325e-01  1.3926000581691336e-01  5.2566852711524803e-01  5.8543740275108469e-01  4.9985365315519664e-01  8.8664231321421016e-01  3.8383198696668991e-01  4.8407819292946874e-01  4.8973328848070596e-01  5.3837849159455731e-01  2.7391558850596820e-01  7.2447910546936367e-01  6.3315456279471091e-02  6.4971674206173127e-02  5.3487279594744719e-01  8.0342219488621869e-01  9.9999930548931504e-01  5.9314669323002300e-01  6.2082749008295537e-07  1.5067905746149628e-08  1.0985964142952791e-07  1.9753459304136327e-04  9.9995215351878874e-01  1.0000000210873334e+00  9.9999999967213749e-01  6.3048107932567088e-01  4.4547948859582898e-01  9.4761551590140669e-01  4.0152041737424055e-01  3.4912514995892469e-01  7.1872033975578598e-01  8.3779177982165975e-01  5.9027160332524575e-01  4.1137708737680012e-01  2.9414967189533531e-01  5.3633600190868569e-01  5.3713884355396513e-01  -6.3026672341435962e-09  1.0000000085145877e+00  6.9706672063151842e-01  4.4462949600638629e-01  4.9634377029128574e-01  4.8989309532894870e-01  6.3523116314895411e-01  2.5755293873443263e-01  -3.4581675628690798e-09  9.9999999993168454e-01  5.7948939788829978e-01  4.3487311097371556e-01  4.1162006630972797e-01  4.2687372236755688e-01  4.9352504897009947e-01  5.8426951263969573e-01  6.1402254404488699e-01  3.5217618880524570e-01  5.4334683943665329e-01  5.5736759855562235e-01  7.5924634661786361e-01  7.8092678191072240e-01  8.6822667045903756e-01  7.1879175927628525e-01  6.9281317112314889e-01  5.8853318597794491e-01  4.6397707570166064e-01  6.1840822011645424e-01  8.1941378525617048e-01  6.7248006999643850e-01  3.8902327356756555e-01  5.1177390097605480e-01  4.2474543801182696e-01  4.5588354781612239e-01  8.2008307862352070e-01  1.2483238489098837e-01  5.7184555282223659e-01  7.6727696022042968e-01  1.0007760087420707e+00  1.0000362284905742e+00  9.9993505704657792e-01  9.2172509654207957e-01  5.5869745405729865e-01  6.0765182504866821e-01  6.1991931543586865e-01  5.6580965012983209e-01  3.7119426053549942e-01  6.7545551038857909e-01  5.9894078800035111e-01  4.7263959130462729e-01  4.4966613037002051e-01  6.1759053423107590e-01  5.9845033099647338e-01  3.7150926770245279e-01  5.2377121575660934e-01  1.0000000202430910e+00  1.2382512374452138e-03  2.7293567707422306e-01  1.5740305871696778e-03  -1.0517253321920889e-06  3.7439587350068341e-08  9.9999348873657368e-01  5.0966644771009806e-01  5.3551001394849624e-03  5.6210410691362067e-01  7.4753954660772570e-01  5.0771985432839550e-01  5.9898553899132689e-01  6.5158379463929572e-01  6.2236327181435158e-01  5.6561118724083514e-01  1.6232520661044172e-01  1.8362152585139493e-01  4.5726259187291257e-01  9.0412766360595220e-01  9.9999999999999967e-01  -1.2322000700597870e-09  5.7035332803706462e-01  3.1264670990379595e-01  3.1334637484826033e-01  9.2433178811482553e-01  6.2840963171460851e-01  5.6312130569439256e-01  3.8625575814387186e-01  6.5498818964075523e-01  9.9999999599994438e-01  8.9356631061370921e-08  5.1716217645567886e-01  4.6572242171109675e-02  6.0944520264486834e-01  2.3305314052878742e-06  1.0000008785636085e+00  4.5940383930204709e-01  3.9723488706540228e-01  7.6484386925551628e-01  4.8744898352051258e-01  4.3990493980976525e-01  7.7440341098856402e-01  4.6917701611262685e-01  6.5494527841847427e-01  4.6454212380725934e-01  4.8862642386304844e-01  3.5477588393264931e-01  6.5355928928033225e-01  3.9712703626502138e-01  3.3449312030019224e-01  2.4134036276924181e-01  1.9018921442133163e-01  2.1434617158776023e-01  2.1498771339987163e-01  4.8364813282742875e-01  5.1022389022009818e-01  4.7689896436374679e-01  9.9999984179615364e-01  6.1637648670500421e-08  -1.3431823503703765e-05  2.7432508508432890e-01  9.9999999994254951e-01  4.1735524777310773e-01  3.9554577807211644e-01  6.1225092005285275e-01  5.8783655329242934e-01  6.1236275237435822e-01  6.2182940500290595e-01  6.0814541485547580e-01  9.1856403697890543e-01  3.1617934113689355e-01  3.0462024964730083e-01  3.2680478729216605e-01  9.4808410724774461e-01  1.0002498092581549e+00  5.8875784908829387e-01  5.7440200933421215e-01  6.4845789741949389e-01  6.6454115185343043e-01  4.5511593178371945e-01  9.8323697360566764e-01  6.3227008743998181e-01  9.7942927602902552e-01  9.5583181388982230e-01  9.9864311817200935e-01  5.6268872961461180e-01  6.0610429831215840e-01  5.4952564558812034e-01  5.1791434177283846e-01  1.9058367691027212e-01  4.6108320106443307e-01  5.0557236450462673e-01  5.7808129275728981e-01  5.9464521463636899e-01  5.5680709214774948e-01  7.4990447290345059e-08  6.7158371223146518e-01  4.9446088447903414e-01  4.7390748044401942e-01  4.8020834127082218e-01  9.4251658152038864e-01  3.7928185856750235e-01  9.9061500667341562e-01  6.5617127444844670e-01  5.6930149440045152e-01  8.7732904339607387e-01  1.2471272482238824e-02  1.7942801525407833e-02  7.1229881662875250e-01  1.3255724105497499e-01  3.3360489943127025e-01  6.6101732873631069e-01  5.5703143265167621e-01  6.2132044740655668e-01  6.4318680605427558e-01  4.2339943896682902e-01  6.2226332729474232e-01  1.4151004555587787e-01  3.9728086407803420e-01  9.9999999982399768e-01  1.2672921798225486e-08  1.0000000009357914e+00  4.6380907972597518e-01  4.2613809253386820e-01  4.6106606421428326e-01  -2.0010156540845768e-04  5.9743561876071738e-01  7.1426107614155387e-01  1.6120563640949875e-01  8.7981305148540245e-01  4.8854098356405834e-01  4.8363041023582198e-01  6.3467722014204520e-01  6.4250367269698061e-01  6.0914846359796337e-01  3.2155165930331708e-01  6.1638501465207851e-01  3.8143465608808114e-01  2.9565934620138945e-01  2.8540620420300483e-01  2.8845142820460135e-01  6.1904233873375958e-01  4.8878061595001626e-01  2.4303598704215518e-01  3.5720968060357977e-01  7.5074105931863355e-01  6.2738593568742407e-01  6.8796145664791730e-01  4.6598850111201595e-01  7.7334653885782742e-02  6.6107082746378398e-01  7.3309856802793949e-01  8.1918882862067266e-01  6.9040663397318114e-01  7.4106904320580025e-01  4.4646558308415368e-01  4.9811224033517570e-01  4.7710568955639943e-01  2.7155420648713677e-04  5.9453500791556557e-01  2.2191862045839050e-01  7.8936518748370610e-01  8.6157674027459386e-01  6.1497336430989180e-01  6.0356089351359132e-01  6.9312310681947376e-01  8.4637896908471444e-01  4.5672720328746819e-01  7.8332696703137650e-01  5.7805037905629264e-01  4.4455539284040063e-01  4.3727590936456956e-01  4.0113265782490948e-01  5.9398360017911844e-01  8.6828983893794986e-01  3.8896679073291446e-01  3.3620034926911191e-01  7.4916310063048630e-01  4.7859809560562755e-01  4.6892644607162043e-01  4.5149611877937174e-01  6.8158366524291158e-01  7.3585171511925518e-01  9.9999995948794851e-01  5.5649707775238766e-01  4.2221497878318792e-01  4.3844045138404364e-01  9.6652301305621202e-01  3.4280522475820314e-02  9.9701871832954614e-01  1.0015005561534622e-01  1.4865424691310592e-05  6.7666179411833213e-02  -3.6253849427832305e-24  1.0122228973031268e-08  -4.1551094184279358e-10  1.0000000000000011e+00  -3.1238971427058046e-24  -6.2797919117000287e-04  9.9968905049655665e-01  9.9998700361185988e-01  5.1597700850450723e-01  8.9263449498063341e-01  4.9476221433686379e-01  9.9999999876938306e-01  8.2339112424845184e-01  2.4300181939151796e-01  9.1636234087544610e-01  2.6455824598352062e-01  9.9999999963548569e-01  5.8416746686220111e-01  8.0486482630505229e-01  6.6325076939754424e-01  5.3621812269576841e-01  4.9125966357892553e-01  4.5125869161600934e-01  4.3137953153078606e-01  4.1987205344160755e-01  4.5723707368934441e-01  4.2830936063688085e-01  7.0690303145901301e-01  3.6609111251463161e-01  6.5291799982841137e-01  5.8903918245632059e-01  3.9472960064770501e-01  5.7546102321210035e-01  6.9033480599799302e-01  6.7067086885304739e-01  4.9367327952686052e-01  1.8831006685929369e-01  2.1129480270515597e-01  4.5739756991062114e-01  5.2003022694302525e-01  6.0475430030463029e-01  5.0075867773038441e-01  4.0639969055165198e-01  4.8436895466127822e-01  5.4546043472267802e-01  9.9966686977129438e-01  6.6941882068181557e-01  7.8538072474777421e-01  7.1037175166762956e-01  5.9707837982652989e-01  2.5198192540971313e-09  6.0028597359185787e-01  1.8310007471528715e-08  1.0000231061474660e+00  7.4440647816148087e-01  5.4482315232106160e-01  5.0599240348522745e-01  4.1193757439326539e-01  4.6584166656781717e-01  5.1391285396530573e-01  8.6799013197318675e-01  6.3080246304721699e-01  6.2301434688361434e-01  1.0000000353645222e+00  2.1473462546998875e-01  4.8615336594517916e-01  5.1936409988555965e-01  4.8369204163890123e-01  3.9630425812800193e-04  5.1354921176168827e-02  1.8597118462373510e-02  6.4820248972916050e-01  5.8928675691548449e-01  5.1898930680361299e-01  7.2523287890440336e-01  6.1069497021905139e-01  6.1500631578795273e-01  6.2847935286131995e-01  1.8213205609259853e-01  5.9223711502468490e-01  9.1559851577060236e-01  4.4373635338773337e-01  3.8017593282876105e-01  7.8622375334958050e-01  5.0279924328831604e-01  4.6461563646794468e-01  6.6665142114715314e-01  7.4834271691134469e-01  1.5339182272784530e-01  5.6377772197456122e-01  5.8021897599436301e-01  5.2936796633720162e-01  6.6339875210537413e-01  3.9032670170353900e-01  4.4659213348303312e-01  9.9999999981847609e-01  5.4805875853592168e-01  5.9334753430320575e-01  3.9026729708842933e-01  5.3997339763921259e-01  2.9638072738964466e-01  -2.2051252810393713e-07  4.0310746652026375e-01  4.1244867346920494e-01  2.3782354265619624e-01  7.8749032852535128e-01  9.2847329504289389e-01  5.8481901822010929e-01  7.2220763260181442e-01  5.2241305894404466e-01  3.6764762948026403e-01  5.0408415768158366e-01  4.5174329457794448e-09  3.2292280807375146e-01  6.0836583528818122e-01  3.7429834188710459e-01  5.0371413239074259e-01  6.5999840953420041e-01  2.4440352820549169e-01  -9.0442413144837405e-05  5.5675165434326568e-01  5.2978988160763385e-01  6.8132415909233546e-01  5.7392053777356700e-01  4.4788322223424626e-01  4.4249511529372643e-01  3.2987836990189534e-01  5.4732617124901861e-01  5.2587909550413614e-01  8.8632837403240217e-01  -4.2746534841702832e-07  -1.4731787952989359e-05  9.9999998129966849e-01  3.7584795120698700e-01  6.2770082433892516e-01  9.7204393351467044e-01  9.9034759225911551e-01  9.9762828515807733e-01  9.3336441491292343e-01  5.6798005393851914e-01  5.1284075998847956e-01  5.8635703249913873e-01  4.2374975895868477e-01  4.8731837482762891e-01  3.3248460333832175e-01  5.2918932515138351e-01  6.7584829333773144e-01  7.0428903463368919e-01  7.3400294778162456e-01  -4.4064072681447682e-09  8.5836800801525970e-01  9.9999999991901334e-01  5.3647099898856287e-01  5.1144436496208057e-01  7.6527930025027380e-01  4.6297999999676165e-01  4.3607646804964767e-01  9.0491788687736541e-01  9.9999447276710263e-01  3.0424877681803002e-03  7.8293729572326531e-01  8.1424445008845434e-08  3.1496681123197423e-01  2.6454153479035258e-01  1.0000024072892213e+00  1.0000022817027134e+00  -7.0771786988921142e-07  6.7966580958240563e-01  7.0540374928773664e-01  8.5310734380704878e-01  4.8175402946090917e-01  6.0005592330970725e-01  1.0000001580365823e+00  -4.9896378190720991e-06  3.1088139168246071e-01  2.4003250027413998e-02  9.9503681993025950e-01  9.9956204139034455e-01  4.7615454208637920e-01  4.8872060933181860e-01  6.1317821489166136e-01  4.9491580540420399e-01  4.7846950105379377e-01  4.8068070189490036e-01  5.2885209658539534e-01  4.7611519620281789e-01  5.8039706274623959e-01  3.9015467572829543e-01  4.7132765896863071e-01  4.5134518068653273e-01  8.0668600396889023e-01  5.7391834038338418e-01  7.1113784121148749e-01  5.7465767332725270e-01  5.0645118101100439e-01  4.7123167125041715e-01  4.6908535137867929e-01  4.8088430740431215e-01  4.8751142374826206e-01  1.1493353211600585e-01  1.7085485020625885e-01  9.9136890187186827e-02  7.0601314011219340e-01  6.3145279813931732e-01  6.0594976619909258e-01  5.9146820847984005e-01  7.7140280439249487e-01  6.2088780770802265e-01  5.6590351546607554e-01  6.5627636634742936e-01  6.0792797178832492e-01  5.9336351001101506e-01  5.5154261897513546e-01  9.0393848529681897e-01  8.3906084380911916e-01  5.2033321277597289e-01  6.8487633206590470e-01  5.8109532414435949e-01  5.4605476915480966e-01  5.9971605681949580e-01  6.3165456890380112e-01  5.9005922312727133e-01  6.2324898870719336e-01  6.1847626278818812e-01  5.4104455797609008e-01  6.4319831898807367e-01  5.3718963042411549e-01  5.4716466888345383e-01  4.0761045860947787e-01  6.6135388891221680e-01  5.5809100418746538e-01  -3.8909203709988946e-10  5.7603883604272510e-01  6.0405380968926892e-01  3.6042810843610724e-02  4.7918361498093015e-01  8.8022386017627752e-01  8.2870420100647435e-01  7.2744245288225851e-01  7.3462664830762844e-02  9.2259877378343277e-02  5.8940301704795117e-01  4.5410764591361602e-01  7.7846722178022421e-01  7.9532299345764756e-01  2.7493367975000133e-01  4.8752727490068604e-01  4.8306011184401138e-01  4.9253558441814976e-01  3.8950941117580140e-01  9.6190908291154997e-01  5.2677683583316270e-01  4.7834931881626069e-01  6.0422541181990652e-01  5.5931336657059416e-01  4.5733157062720670e-01  4.7673405463303548e-01  3.3657233103116774e-01  3.7529961572463871e-01  4.8602070128355140e-01  3.0715844166751866e-01  2.4222682482033953e-01  2.9124302685381787e-01  9.9999999793266114e-01  1.1522500100838395e-02  4.1116097316769773e-01  4.1578120293508936e-01  4.8901692830577531e-01  2.1734679599937237e-01  6.1676339461476370e-01  4.7004049607971443e-01  5.8932729412941642e-01  1.6773065141017031e-08  1.6075283632520315e-01  4.7849641856018671e-01  5.6546202986107663e-01  8.0876147834840478e-07  6.8825794480934532e-01  7.1323403217517489e-01  6.5556584758452496e-01  1.6052098213423246e-01  5.1103568181641496e-02  9.9999977483924163e-01  5.0065229008111833e-01  9.0739021861864710e-01  8.1478802527177840e-01  6.8948513916790011e-01  5.4310722028511660e-01  6.3972839365107603e-01  5.6414911379674726e-01  1.4928070718666014e-01  9.9999621686998619e-01  9.9999985637500888e-01  1.4759434304165906e-03  5.2595334782803538e-01  6.7468400826668079e-08  2.8457824758767160e-05  4.3998003413167286e-02  3.3543126559777497e-01  9.9999999992910571e-01  9.8746585137272092e-01  1.0000000097586965e+00  4.3975341114228800e-01  4.6815562479418416e-01  9.1028974202359603e-01  4.6295991308849127e-01  9.9999995745775883e-01  1.8177203510527737e-01  2.3664189318727280e-01  7.0044186981526535e-01  1.9034018770425948e-01  8.2089928295739512e-01  8.5859559379101602e-01  5.5574500492815126e-01  5.0236177103257873e-01  2.0113985719230687e-01  5.7467574154218948e-01  5.7567088203115846e-01  5.8993800132232577e-01  6.7719778849411683e-01  6.2107710780538550e-01  9.9999999844889464e-01  4.1418446007204612e-01  4.0375470886057668e-01  5.8071052505373466e-01  9.5077732749443600e-01  9.6674437055369422e-01  5.8410731638556646e-01  4.6614765963602744e-01  1.1462100161156068e-09  3.5521052759354288e-01  6.0151468356037274e-01  4.0806647369529708e-01  3.9802239546152574e-01  4.1783610337003091e-01  5.3498640096086025e-01  4.6473301188100469e-01  3.6421099946245211e-01  3.4398360712047493e-01  3.8396939718737932e-01  5.9437721899049967e-01  2.5123228385302498e-01  8.5184461385754406e-01  3.3769677131759779e-01  8.0477765440561211e-01  7.7578161054979522e-01  7.5647261940277533e-01  1.0007144407135120e+00  1.0013614552225842e+00  7.9297975049036774e-05  6.