<?xml version="1.0"?>
<VTKFile type="UnstructuredGrid"  version="0.1"  >
<UnstructuredGrid>
<Piece  NumberOfPoints="1079" NumberOfCells="1944">
<Points>
<DataArray  type="Float64"  NumberOfComponents="3"  format="ascii">0.08500000000000001 0.02 0  0.005 0.02 0  0.005 0.03 0  0 0.03 0  0 0 0  0.005 0 0  0.005 0.01 0  0.08500000000000001 0.01 0  0 0.015 0  0 0.0075 0  0 0.0225 0  0.04500000000000001 0.02 0  0.04500000000000001 0.01 0  0.025 0.01 0  0.025 0.02 0  0.065 0.02 0  0.065 0.01 0  0.035 0.02 0  0.035 0.01 0  0.07500000000000001 0.02 0  0.07500000000000001 0.01 0  0.015 0.02 0  0.015 0.01 0  0.05500000000000001 0.01 0  0.05500000000000001 0.02 0  0.07000000000000001 0.01 0  0.07000000000000001 0.02 0  0.05 0.01 0  0.03 0.01 0  0.03 0.02 0  0.04000000000000001 0.01 0  0.01 0.01 0  0.02 0.02 0  0.06 0.015 0  0.08500000000000001 0.015 0  0.05 0.02 0  0.07250000000000001 0.015 0  0.04000000000000001 0.02 0  0.03750000000000001 0.015 0  0.0525 0.015 0  0.02 0.01 0  0.01 0.02 0  0.0275 0.015 0  0.0125 0.015 0  0.08000000000000002 0.01 0  0.08000000000000002 0.02 0  0.0325 0.014375 0  0.04291666666666667 0.015 0  0.065 0.015 0  0.005 0.005 0  0.005 0.015 0  0.02208333333333334 0.015 0  0.07791666666666668 0.015 0  0.005 0.025 0  0.06 0.01 0  0.06 0.02 0  0.01729166666666667 0.01572916666666667 0  0.04770833333333334 0.01427083333333334 0  0.06875000000000001 0.01625 0  0.008750000000000001 0.01625 0  0.05625000000000001 0.01625 0  0 0.00375 0  0 0.01875 0  0 0.01125 0  0 0.02625 0  0.08145833333333334 0.01354166666666667 0  0.0675 0.01 0  0.0075 0.0125 0  0.0625 0.0175 0  0.0575 0.0125 0  0.0625 0.0125 0  0.08207465277777778 0.01707465277777778 0  0.06767857142857144 0.01321428571428571 0  0.0175 0.01 0  0.01875 0.01291382575757576 0  0.0475 0.02 0  0.04564168086314595 0.01679860519591141 0  0.00296875 0.0125 0  0.0025 0.03 0  0.0025 0 0  0.00296875 0.0175 0  0.01521990740740741 0.0132349537037037 0  0.0497800925925926 0.0167650462962963 0  0.0325 0.02 0  0.03474264705882353 0.01674632352941176 0  0.03750000000000001 0.02 0  0.03025735294117647 0.01674632352941176 0  0.0275 0.02 0  0.0525 0.02 0  0.0125 0.01 0  0.04020833333333334 0.01322916666666667 0  0.03750000000000001 0.01 0  0.0225 0.02 0  0.02479166666666667 0.01677083333333333 0  0.07520833333333335 0.01322916666666667 0  0.07250000000000001 0.01 0  0.07520833333333335 0.01677083333333334 0  0.07250000000000001 0.02 0  0.04020833333333334 0.01677083333333333 0  0.0225 0.01 0  0.02375 0.01262152777777778 0  0.04250000000000001 0.02 0  0.04250000000000001 0.01 0  0.07750000000000001 0.01 0  0.07750000000000001 0.02 0  0.05036151960784314 0.01294424019607843 0  0.0705560064935065 0.01284699675324675 0  0.05458333333333334 0.01291666666666666 0  0.0021875 0.024375 0  0.005 0.0275 0  0.01125 0.0175 0  0.01463848039215686 0.01705575980392157 0  0.01 0.01375 0  0.03625 0.0125 0  0.0021875 0.009375 0  0.05375000000000001 0.0175 0  0.07125000000000001 0.0175 0  0.005 0.0025 0  0.0021875 0.005625 0  0.02655220103578155 0.01234889948210923 0  0.002187499999999999 0.020625 0  0.02979166666666667 0.01302083333333333 0  0.0525 0.01 0  0.07895833333333334 0.0125 0  0.01994277885235332 0.01704213007736944 0  0.07934656179076068 0.01733823814273861 0  0.04505722114764669 0.01295786992263056 0  0.06625 0.0175 0  0.006250000000000001 0.0175 0  0.05750000000000001 0.02 0  0.05875000000000001 0.0175 0  0.005 0.0225 0  0.005 0.0075 0  0.002375 0.027375 0  0.002375 0.002625000000000001 0  0.0475 0.01 0  0.0175 0.02 0  0.0325 0.01 0  0.03375 0.0121875 0  0.04261299435028249 0.01749205508474576 0  0.08500000000000001 0.0125 0  0.08250000000000002 0.01 0  0.02121963399965531 0.01224824108143494 0  0.0675 0.02 0  0.0125 0.02 0  0.02720152243589744 0.0175 0  0.03715165441176471 0.0175 0  0.08500000000000001 0.0175 0  0.0275 0.01 0  0.0025 0.0149560546875 0  0.0075 0.01 0  0.0075 0.02 0  0.06526785714285716 0.0125 0  0.01281031447005516 0.0125 0  0.0625 0.015 0  0.06 0.0125 0  0.05750000000000001 0.01 0  0.0625 0.02 0  0.0625 0.01 0  0.08250000000000002 0.02 0  0.04260103740101855 0.01252623201412851 0  0.02240052247582197 0.01750164767101344 0  0.07293583459427785 0.01238479732953041 0  0.005234374999999999 0.012265625 0  0.03528131980640358 0.01454684009679821 0  0.0325 0.01760027210036557 0  0.02532593822924343 0.01428227733767297 0  0.08009952069819683 0.01527145502895417 0  0.01987282359856536 0.01482587683689801 0  0.04828232595121382 0.01210233572595705 0  0.01671767404878618 0.01789766427404295 0  0.05125 0.01829007549029352 0  0.05247215456215357 0.01288882122882024 0  0.07338729919678716 0.01799385040160642 0  0.03838729919678716 0.01200614959839357 0  0.07717482110586968 0.01780301674207099 0  0.04771860040890012 0.01773306039388322 0  0.03125 0.01160380747126437 0  0.06875000000000001 0.01154265873015873 0  0.07625000000000001 0.01154065860215054 0  0.01625 0.01153997817696946 0  0.068125 0.018125 0  0.05437500000000001 0.015625 0  0.066875 0.015625 0  0.07039794950204951 0.01494384850614853 0  0.05687500000000001 0.018125 0  0.006875 0.015625 0  0.008749999999999999 0.01833333333333333 0  0.010625 0.015625 0  0.05625 0.01416666666666667 0  0.05812500000000001 0.015625 0  0.0449088595298192 0.01494528408816316 0  0 0.016875 0  0 0.013125 0  0.04962452342047931 0.01478673066448802 0  0.0153754765795207 0.01521326933551198 0  0.0771774565913315 0.01322498191305479 0  0.01857756431135545 0.01840228599899994 0  0.04642243568864456 0.01159771400100006 0  0.08125000000000002 0.01155637254901961 0  0.08317650804863432 0.0118234919513657 0  0.08288217288011697 0.01511353252923977 0  0.02837253504384828 0.0117177464035174 0  0.03896057962520807 0.01831163685754031 0  0.01125 0.0114244162490927 0  0.00935910490099115 0.0119067901980177 0  0.02946078431372549 0.01495404411764706 0  0.02875 0.0185829434466942 0  0.002968749999999999 0.0225 0  0.064375 0.016875 0  0.00296875 0.0075 0  0 0.001875 0  0 0.005625 0  0 0.009375 0  0 0.020625 0  0 0.024375 0  0 0.028125 0  0.06062500000000001 0.01812500000000001 0  0.008303571428571429 0.01446428571428572 0  0.01375 0.01865917058160413 0  0.05137790313978056 0.01143372888932909 0  0.04125000000000001 0.01131513063942604 0  0.04101690263896279 0.01844430285842771 0  0.02399563533148224 0.01844349395710867 0  0.08125000000000002 0.01868815426145731 0  0.05354684380692146 0.01145463537600848 0  0.01699195823639423 0.01315138909884649 0  0.07598357371794873 0.015 0  0.04098357371794872 0.015 0  0.003744047619047619 0.00375 0  0.003344630281690141 0.02580853873239437 0  0.04625 0.0187354532243972 0  0.06388392857142858 0.01138392857142858 0  0.06375 0.01375 0  0.05875 0.01375 0  0.06375 0.02 0  0.00622802734375 0.01372802734375 0  0.003630681818181818 0.001369318181818182 0  0.003630681818181818 0.02863068181818182 0  0.06125 0.01625 0  0.06125 0.01125 0  0.05625000000000001 0.01 0  0.05875 0.01125 0  0.06125 0.01375 0  0.08337864763241221 0.0183786476324122 0  0.05213634138653413 0.01674432930673294 0  0.04375000000000001 0.01 0  0.07424178685897437 0.01529258578431373 0  0.03924178685897436 0.01529258578431372 0  0.03410139294454583 0.01843406022904556 0  0.03089860705545417 0.01843406022904556 0  0.02094160484316717 0.01850229584291991 0  0.04375000000000001 0.02 0  0.04437042160883325 0.01820701498672512 0  0.04816311705429156 0.01600061344661149 0  0.07151224904251052 0.0114127410511319 0  0.04395528506193162 0.01639387970349481 0  0.0128750358694518 0.0167500179347259 0  0.02855808448399799 0.01642839899839741 0  0.02812690373330794 0.01340955081400569 0  0.08358500641945087 0.01351822349116885 0  0.05590277777777778 0.01173611111111111 0  0.06683110430364615 0.01164926404662283 0  0.02573206694914602 0.01842532451809762 0  0.01438126661842046 0.01166701193099454 0  0.02384283211216029 0.01526549696571563 0  0.03625 0.02 0  0.004609375000000001 0.0182421875 0  0.003398437500000001 0.01943359375 0  0.001728307845744682 0.01894718251329787 0  0.004377805359085963 0.01656966216675735 0  0.04649673309852075 0.0153889662370871 0  0.03615513600614297 0.01592654988586041 0  0.03316985071935832 0.01598763605018279 0  0.03110111603888768 0.01529816275177977 0  0.01370614113484869 0.0138804542047638 0  0.04930041102671841 0.01842260568883502 0  0.07875000000000001 0.02 0  0.0745395359848485 0.01165101111925709 0  0.03860755698543604 0.01373741558556884 0  0.02605038706571737 0.01573944002207753 0  0.07559826163500957 0.01841729376139847 0  0.04437500000000001 0.01149157931286774 0  0.06874116707361365 0.01454618473032123 0  0.003761917372881356 0.0239307468220339 0  0.003984374999999999 0.01125 0  0.003768503289473684 0.01392539576480263 0  0.001796875 0.0111328125 0  0.003761917372881356 0.008930746822033899 0  0.005 0.00625 0  0.003761917372881355 0.0210692531779661 0  0.06633928571428571 0.01410714285714285 0  0.006484375 0.01125 0  0.08364120589325512 0.01657288979763549 0  0.03576267476503373 0.0184116442851204 0  0.07370875846579374 0.0137848203678562 0  0.06964285714285715 0.01758928571428571 0  0.05520833333333334 0.01833333333333333 0  0.06491071428571429 0.01839285714285714 0  0.0510098951944636 0.01559941474766356 0  0.01786087179886325 0.0115702210443714 0  0.01972197383235524 0.01160576093166696 0  0.01804697593127788 0.01433503795474974 0  0.001644074528704677 0.01642892723865279 0  0.00125 0.03 0  0.001497685185185185 0.001267746913580247 0  0.07315451164202422 0.01643443118912983 0  0.001233906745910645 0.0140625 0  0.01162635071030191 0.01362229857939618 0  0.01528023503083844 0.01845923557506155 0  0.06625 0.02 0  0.07695012019230771 0.01624387078484555 0  0.03139091092855769 0.01320776147621796 0  0.03857339107781042 0.01675295051810485 0  0.001754993120977522 0.02590789105493891 0  0.002288757784711197 0.00412546923654445 0  0.07914382119690884 0.01404430049871201 0  0.001391810103286306 0.01257390899021902 0  0.0419501201923077 0.01614675005432421 0  0.001484375 0.007018229166666667 0  0.001484375 0.02201822916666666 0  0.048
[...]
<PointData  Scalars="concentration"> 
<DataArray  type="Float64"  Name="concentration"  format="ascii">5.6708147834259282e-01  1.0000471800540589e+00  9.9999999999999889e-01  9.9999999999999978e-01  1.5777218104420234e-25  2.5350912608944779e-24  -2.5476545100218683e-04  5.0566353381387130e-01  5.7712151478459417e-01  2.0464193515877299e-05  9.9999797819187164e-01  6.7204898021850312e-01  4.0066989541348463e-01  2.4843564059835446e-01  8.1702434015423753e-01  6.0121143623562912e-01  4.7097354276746828e-01  7.3168764661785335e-01  3.3746164165732534e-01  5.8111098917637283e-01  4.9171488284946152e-01  9.2895241357428870e-01  1.1718897899191567e-01  4.4243270077360386e-01  6.3003167738259225e-01  4.8241615286385214e-01  5.9055225386569210e-01  4.2321035759000963e-01  2.9642572209928375e-01  7.7093238725643976e-01  3.7263126101527350e-01  4.2208560459161382e-02  8.6961900157588767e-01  5.3650110170362320e-01  5.3638255960855741e-01  6.4910009699271276e-01  5.3635090484466452e-01  6.9930408333056115e-01  5.3689240039725972e-01  5.3635656664827125e-01  1.9012155806247708e-01  9.8285381745282130e-01  5.3843756720994951e-01  5.5423192450953707e-01  4.9922602349798173e-01  5.7358894818875406e-01  4.9291179173265803e-01  5.3664088208790739e-01  5.3640588412136780e-01  7.1120889904369588e-09  5.7960370197121025e-01  5.4115562824637942e-01  5.3638135101443196e-01  9.9999999771786530e-01  4.5843605026042400e-01  6.1431130354793306e-01  6.3766435787282727e-01  5.0708452445430086e-01  5.5904416756551867e-01  7.9392457834584651e-01  5.7279814984076549e-01  4.1708109305561376e-08  9.9540810656137002e-01  1.4904986390038080e-02  9.9999998911909294e-01  5.2006181671367968e-01  4.7748444578699828e-01  1.0443026798046424e-01  5.8936418789911560e-01  4.7325308683135453e-01  4.8386834329184042e-01  5.5805092651646870e-01  5.0376880797672186e-01  1.5488755913712854e-01  3.0886787750065425e-01  6.6047211709789622e-01  6.1112241435221482e-01  5.9233787616529268e-02  9.9999999999999867e-01  -1.3205640505645884e-25  9.8315224821820169e-01  3.1029305861755702e-01  5.9958614077352379e-01  7.5065631763270058e-01  6.4502335154857837e-01  7.1506602090068483e-01  6.6495770553906008e-01  7.9474488896418938e-01  6.3909602705052948e-01  7.7721895336210517e-02  4.4635768012079113e-01  3.5688926636978280e-01  8.4436785131089165e-01  6.9580411808850229e-01  5.1169109104497734e-01  4.8717640830258702e-01  5.6100589257355737e-01  5.8551470381911919e-01  6.2667337329031003e-01  2.2149223039553390e-01  3.2421776606469455e-01  6.8539179049351828e-01  3.8659225382244683e-01  4.9504987787130200e-01  5.7733530119635157e-01  4.6623986360512520e-01  5.0174986857625159e-01  4.7559178249494383e-01  9.9999991026791035e-01  9.9999999993507238e-01  8.8992459855877315e-01  8.0586596340094552e-01  3.3009627533901403e-01  3.9670784656790964e-01  7.9685455302077406e-05  6.0890127810927297e-01  5.7453515259019661e-01  8.9423672058803636e-10  -1.8531222013731576e-07  3.2799282595697676e-01  1.0000189435089515e+00  3.9091810572921692e-01  4.3357673638378486e-01  5.0768092058818592e-01  7.5353267295507975e-01  5.6324303695664579e-01  4.5159936238709353e-01  5.8194690850206798e-01  9.6630945452408845e-01  6.2245158786090382e-01  5.9706921517669587e-01  1.0000002778308841e+00  1.3201728699377014e-07  9.9999999990804800e-01  -5.6862936157927983e-09  4.1274803360556278e-01  8.9933821163339545e-01  3.2036189811549015e-01  3.7067027528642321e-01  6.4648847159154088e-01  5.1392288505899897e-01  5.0248187183654303e-01  2.7520798698961785e-01  5.9542575255228236e-01  9.5632987142835668e-01  7.3011593996040003e-01  6.6936255101996711e-01  5.5878840234513372e-01  2.7535818913871313e-01  5.7160118684778516e-01  1.0915092167327113e-02  9.9735614943608619e-01  4.8882669223285774e-01  1.9789065829968716e-01  5.3644194149989444e-01  4.7923409055563443e-01  4.5036854996116682e-01  6.0793023768161691e-01  4.6510099002078154e-01  5.7027315071354900e-01  4.2762555363974919e-01  7.6814951967867295e-01  4.9931568794649361e-01  4.2756956649366448e-02  5.0733131910369034e-01  6.9995706373054190e-01  4.7162430561768171e-01  5.3980224739731342e-01  5.2355917432779742e-01  4.3697581473740521e-01  8.5165234894601205e-01  6.3155838536711673e-01  4.7005343495952645e-01  5.7633035485232009e-01  3.9135357828598200e-01  5.6976492608839857e-01  6.3372341327657367e-01  3.3354654053793908e-01  4.8511560202328297e-01  4.9748861607702882e-01  1.7511286281893834e-01  5.8618784378954869e-01  5.5650692036433735e-01  5.4894302211673929e-01  5.3543980638542232e-01  6.1153830946113352e-01  7.0920293438016679e-01  9.6834179605071902e-01  6.6776346858596702e-01  5.1189679466374016e-01  5.5377590542463695e-01  5.3424614246071433e-01  9.1851733927797341e-01  1.6055503313376895e-01  5.2833162301733150e-01  5.7804746932622408e-01  5.1338654153661534e-01  8.5559536018362747e-01  4.2016298010880199e-01  5.0424173449439014e-01  5.0808839745403733e-01  5.3762720859960589e-01  3.1334804736283733e-01  6.8689470164210520e-01  8.7934862851482193e-02  8.6680943190814055e-02  5.3420836457462995e-01  7.6429984938350259e-01  1.0000003428665212e+00  5.7517094199905250e-01  -5.3472033278277936e-07  1.3573171472186487e-08  6.7084151260301114e-07  5.0735461584339820e-04  9.9986912635625858e-01  9.9999984926661944e-01  9.9999999856555133e-01  6.0217928708472568e-01  4.5087775704165184e-01  9.2464396198737275e-01  4.3671302015303615e-01  3.8920494332829692e-01  6.8040020861956252e-01  8.0143447708066629e-01  5.6957350529268491e-01  4.4521889131497955e-01  3.1606525786468731e-01  5.3638614539788276e-01  5.3674060096165643e-01  -2.7156303568713395e-09  9.9999999974779985e-01  6.5922100477255963e-01  4.7362845250378488e-01  5.0899178427774761e-01  5.0352969784856938e-01  6.0420814931627931e-01  2.7644431871905240e-01  -1.2903239271800835e-09  9.9999999996991407e-01  5.6641822798218810e-01  4.6578373539281154e-01  4.4690144278938898e-01  4.5904351527004811e-01  5.0656971802221462e-01  5.6547592339829067e-01  5.9352691904217780e-01  3.9377653071405833e-01  5.4089669763577142e-01  5.5282421345457955e-01  7.2025672766887239e-01  7.4229146258071754e-01  8.3423134457182557e-01  6.7812251740560525e-01  6.5736906462799316e-01  5.7570153572208549e-01  4.8912627314253870e-01  5.9983073916143903e-01  7.9627402321792384e-01  6.5163464794886283e-01  4.1024532454920359e-01  5.2150013558744779e-01  4.5615131312404561e-01  4.8229466765116652e-01  7.8325078198379661e-01  1.5529633981766761e-01  5.6592603320233581e-01  7.2438290558068863e-01  9.9773798708871064e-01  9.9998115403262555e-01  9.9918514683126269e-01  9.0067233225741816e-01  5.5330835728113703e-01  5.9396035407342385e-01  6.0502159546066070e-01  5.6034432627413056e-01  3.8358632749382660e-01  6.4069130748911496e-01  5.7551405724171001e-01  4.9557041909759608e-01  4.6683263157784122e-01  6.0539527868210219e-01  5.7596545340462335e-01  4.0917648563895764e-01  5.2803561882734518e-01  1.0000000158195801e+00  3.4608457825659987e-03  2.9197926147736841e-01  4.7546066498176040e-03  1.6709964646621670e-06  8.1436811059819114e-09  9.9999482467339762e-01  5.1842007909062360e-01  1.2929431561156121e-02  5.5201343294019889e-01  7.0879786077252316e-01  5.1794853120398898e-01  5.7779989715250812e-01  6.1969078435568170e-01  5.9492575518387636e-01  5.5805088493208088e-01  1.9729845306110627e-01  2.2043776281663216e-01  4.6319792917463443e-01  8.8255482263004936e-01  9.9999999999999911e-01  -6.9493338621312518e-10  5.5840416479316057e-01  3.2918205851365212e-01  3.2957404246276295e-01  8.9805998607976489e-01  5.9851676825287103e-01  5.5330803602339507e-01  4.1050735974411762e-01  6.3127159222448281e-01  1.0000000110283269e+00  3.1962912299971277e-08  5.2444365639827750e-01  6.6995610673126468e-02  5.9353842843072335e-01  1.2788660779688431e-06  9.9999708166002454e-01  4.7856997550073299e-01  4.3252544623279299e-01  7.4253728474706315e-01  5.0017318703004487e-01  4.6291725061450695e-01  7.5001380724264333e-01  4.8421804899182425e-01  6.3989458374413843e-01  4.7992877951362778e-01  5.0152635828605074e-01  3.9241428166766912e-01  6.4041685527850267e-01  4.1165580295474158e-01  3.5775053546089974e-01  2.8048879932036114e-01  2.3381181873479320e-01  2.5948041281440049e-01  2.5341886051597223e-01  5.0145613187059157e-01  5.1932788741553049e-01  4.9906263474229129e-01  1.0000006423784098e+00  -1.2060560033526859e-08  -1.1337385681408980e-05  3.1563838891647167e-01  1.0000000001212810e+00  4.3330518814495589e-01  4.2098885522156310e-01  5.8629305308988866e-01  5.7086418836753350e-01  5.9135314022314489e-01  5.9386623218947354e-01  5.8311660613757899e-01  8.9654664950674579e-01  3.5664974648118564e-01  3.4863752266496345e-01  3.6738705172908576e-01  9.2925073062046837e-01  9.9978630147858050e-01  5.7320393702934358e-01  5.6214722141833806e-01  6.1598442860714486e-01  6.3050341436381030e-01  4.7020594601285509e-01  9.6892950939986899e-01  6.0238825597711210e-01  9.6490750659397440e-01  9.3595632939216433e-01  9.9336540707184606e-01  5.5361263526579263e-01  5.8607701604522344e-01  5.4448825696753045e-01  5.2061888586172778e-01  2.1317024450919853e-01  4.8681420371752970e-01  5.1411295831115755e-01  5.6214462778468366e-01  5.7266794385008601e-01  5.4916821212994316e-01  1.5943771415204857e-08  6.3506143121829939e-01  5.1050750870927264e-01  4.9738952083847632e-01  5.0155762788836589e-01  9.1472862799949795e-01  4.1838813767216398e-01  9.8338631501175133e-01  6.3590833927882795e-01  5.5811312467466956e-01  8.5225456298707591e-01  2.5264262806932301e-02  3.1621605652796245e-02  6.8982293996271948e-01  1.7210532780623924e-01  3.6033727217803113e-01  6.2597847156023290e-01  5.5055573316450623e-01  5.9287975604812626e-01  6.1079944943344566e-01  4.3628934447057749e-01  6.0163025300825379e-01  1.6637868997389826e-01  4.2427522639236936e-01  9.9999999997906786e-01  6.2897170304086039e-09  1.0000000000056073e+00  4.8966014581625150e-01  4.3432906900382051e-01  4.7240140225042626e-01  5.2539639621705609e-05  5.8921073368696697e-01  6.7505486514090951e-01  2.0341746882094444e-01  8.5511317291508260e-01  5.0753390170056556e-01  5.0448381451335356e-01  6.0459323443055146e-01  6.1114451301801764e-01  5.8330468233495436e-01  3.6493096194235847e-01  5.8944125653097401e-01  4.0771051212673520e-01  3.3689050599299158e-01  3.2998624507069796e-01  3.1453853940406906e-01  6.0831053779717237e-01  5.0249409591403005e-01  2.8532915136503184e-01  3.9707725876702465e-01  7.1008932955036441e-01  6.0953019505552275e-01  6.6907170114374859e-01  4.9096516688556224e-01  1.0630604559716351e-01  6.4249896580223298e-01  7.0607083958177852e-01  7.7988989589864077e-01  6.6165936311414086e-01  7.2195444153403010e-01  4.7533729859693447e-01  5.1041279648694216e-01  4.9647835676271490e-01  8.8955598126823300e-04  5.7888998289609916e-01  2.4339967196341375e-01  7.6122533686190430e-01  8.2516018980099226e-01  5.8785799939789252e-01  5.7904969961249064e-01  6.5444381951588948e-01  8.0572762467161940e-01  4.8434363972474853e-01  7.4077447374837146e-01  5.6519771191241175e-01  4.7448027100772810e-01  4.6848727569508047e-01  4.3788639669988361e-01  5.7187076127543901e-01  8.2966116881201435e-01  4.2740147634604708e-01  3.7903797259929389e-01  7.0699682998430791e-01  5.0087671238979292e-01  4.9359609942204735e-01  4.8000549094346845e-01  6.4401797428315077e-01  6.9375001959811322e-01  9.9999997538685714e-01  5.4855839471667212e-01  4.5514024301661027e-01  4.6881506578980686e-01  9.4512354493545281e-01  5.6807675417983247e-02  9.9078120094127098e-01  1.3592787260625358e-01  2.8920559233809276e-05  9.7782803607045318e-02  -3.3205749023419857e-24  9.3754073883645491e-10  -3.2167235577127740e-10  1.0000000000000009e+00  -3.2800919998410948e-24  1.4577991270186390e-03  9.9808429840695634e-01  9.9998647191160794e-01  5.2410402070736062e-01  8.5667654531106452e-01  5.0765516859598236e-01  1.0000000001889888e+00  7.8171010441010713e-01  2.8767747474282113e-01  8.8399653511948995e-01  3.0953306932200642e-01  9.9999999995698818e-01  5.6527280770273391e-01  7.6209310195680324e-01  6.2885828617240536e-01  5.3628904079593864e-01  5.0479855139645879e-01  4.7628648198684331e-01  4.6281557230144466e-01  4.5411586955540201e-01  4.8135336111247723e-01  4.6127787537873577e-01  6.6675290802208753e-01  4.0655312554386314e-01  6.1876734333330730e-01  5.6831205220108505e-01  4.2497266976688602e-01  5.6092722622303082e-01  6.5271035152830625e-01  6.4209856289544620e-01  5.0365725186215604e-01  2.1104631976632093e-01  2.5239958157850850e-01  4.7959732929130239e-01  5.2546921796326540e-01  5.8031284432176833e-01  5.1468109151802910e-01  4.3573757568452409e-01  5.0249431118753229e-01  5.4292458441207869e-01  9.9927297514749602e-01  6.5534638704306558e-01  7.4448723303392839e-01  6.7996843232667681e-01  5.7451766484477285e-01  1.6480054727929653e-07  5.7685654900067762e-01  4.8154103964124074e-09  1.0000916650062748e+00  7.1287166301000870e-01  5.4240291318828737e-01  5.1637086427304857e-01  4.4632433489679618e-01  4.8816028391355193e-01  5.2251185866506511e-01  8.3577514395348185e-01  6.0642613769327547e-01  6.1257011267116124e-01  9.9999987668513857e-01  2.3967809802158666e-01  5.0411821928606571e-01  5.2551186263545602e-01  4.9426850587260923e-01  3.0729689276279273e-03  7.0575586374937646e-02  3.6945139011308172e-02  6.2044586883496888e-01  5.7920315921418386e-01  5.2581123647204420e-01  6.9452749829316174e-01  5.9966714202228277e-01  5.9034367913936969e-01  6.0267313109940446e-01  2.2248921672942504e-01  5.7223408077864224e-01  8.8544261929591406e-01  4.6635813193499354e-01  4.1866053182208640e-01  7.6198790578007181e-01  5.1461361940963923e-01  4.6803554495454552e-01  6.3574476215092945e-01  7.0696587627502483e-01  1.7879102673573130e-01  5.5339195798283980e-01  5.6421321663132662e-01  5.3210255602838874e-01  6.4805639007049731e-01  4.0440227431509068e-01  4.5111438683292610e-01  9.9999999980572141e-01  5.4419668923451503e-01  5.7343970492352070e-01  4.2000164981365418e-01  5.3675366037724759e-01  3.3940265969409528e-01  1.1977061765760605e-07  4.2636973451122834e-01  4.4543421810512940e-01  2.7919844444991854e-01  7.4920821301848339e-01  9.0055694622134819e-01  5.6603838346024915e-01  6.8229618487922084e-01  5.2760455877317158e-01  4.0707523592550038e-01  5.0415749870986304e-01  1.9923016800396069e-09  3.6543290703373887e-01  5.8298615560647593e-01  3.9450785391457555e-01  5.1594488634362989e-01  6.2851083929068097e-01  2.6416433226083691e-01  -1.2170938147648566e-04  5.4883113832383312e-01  5.3242282527746077e-01  6.4423443346029607e-01  5.6703766128627198e-01  4.7184932119478634e-01  4.6697786339451197e-01  3.7211591481782164e-01  5.4364950292863878e-01  5.2514708156503220e-01  8.6154342820053254e-01  -6.5906583951723300e-08  -2.4265812784708717e-05  1.0000001728839687e+00  3.8726946137238583e-01  5.9831175762608213e-01  9.5735039873169014e-01  9.8077085055161073e-01  9.9193259589194682e-01  9.1294350009173708e-01  5.5672697342643507e-01  5.2145480176417447e-01  5.7618247549719415e-01  4.5210181872101857e-01  5.0031301441660581e-01  3.6664384309610976e-01  5.3012414916607387e-01  6.3938652974528032e-01  6.6978922550902831e-01  6.9343202207820376e-01  -2.3321646596601252e-09  8.3226078714319796e-01  9.9999999989406863e-01  5.3647172357513251e-01  5.1373838788696780e-01  7.3185025596083464e-01  4.7699938347852178e-01  4.5070369514379027e-01  8.7170433594363350e-01  9.9998086712793399e-01  8.3547968357180844e-03  7.4117127568869856e-01  2.9579311085454143e-08  3.5036541740604255e-01  3.0859414955736686e-01  1.0000019657326626e+00  9.9999902381258865e-01  -1.6066586552668364e-06  6.4640159324898083e-01  6.6649219024429229e-01  8.2455237955183558e-01  4.9009338231338717e-01  5.8584076623308112e-01  9.9999996884174891e-01  -5.9944538524519233e-06  3.5351782358493788e-01  4.0760061927980949e-02  9.9001197751433878e-01  9.9854866036515277e-01  4.9881577016341982e-01  5.0088883992423483e-01  6.0244663753411054e-01  5.1096510878004187e-01  5.0066001806637239e-01  5.0229677279774698e-01  5.3041315454389903e-01  4.8993186564801616e-01  5.7004761268754556e-01  4.2776421444219248e-01  4.9306566897687870e-01  4.7969909901392838e-01  7.8651632547812633e-01  5.6436647563680509e-01  6.9334808459086172e-01  5.6848286712394758e-01  5.1382761541594812e-01  4.9524297229510206e-01  4.9348826042509730e-01  5.0104336844121289e-01  5.0545708815128865e-01  1.5143475716228672e-01  2.0071155472196189e-01  1.3340755700349785e-01  6.7265421596083474e-01  6.0145825957895871e-01  5.8504977177135764e-01  5.7425480660880823e-01  7.5079107286987889e-01  5.9282127274973928e-01  5.5654316928309877e-01  6.2221386934041278e-01  5.8443783763678514e-01  5.7435508804778568e-01  5.4746260020367488e-01  8.8133084903072023e-01  8.1629139717583443e-01  5.2501249447496190e-01  6.6985562014962963e-01  5.6651457910327596e-01  5.4295777742965468e-01  5.7937776020879095e-01  6.0417533816312285e-01  5.7434938127917534e-01  5.9747561815501360e-01  5.9348789916996691e-01  5.3967701186209627e-01  6.1122641314395221e-01  5.3692838293191814e-01  5.4293225843931214e-01  4.3870621856916148e-01  6.2655730560242795e-01  5.5003837137177869e-01  3.3419304448074055e-10  5.6922758490985659e-01  5.9273648719917249e-01  5.6602665763435277e-02  4.8685391580630377e-01  8.4399245393056754e-01  7.9975635214227514e-01  6.9297984876791385e-01  9.5369438189158676e-02  1.1932464538966360e-01  5.6954916572501724e-01  4.8196459930833807e-01  7.4827316723760717e-01  7.6216639936455510e-01  3.1891560133906977e-01  5.0654530836818090e-01  5.0403537443799662e-01  5.0991085722796503e-01  4.2359228250950370e-01  9.4396337873574443e-01  5.2867200421983429e-01  4.9029643915450322e-01  5.8972947082309202e-01  5.5100073906324354e-01  4.7116831181813523e-01  4.8978929862262727e-01  3.7846084727723361e-01  4.1419600264197898e-01  5.0596274915885098e-01  3.4221794396579580e-01  2.8606052427332745e-01  3.2665617149122012e-01  9.9999999816027973e-01  1.9983148165805778e-02  4.4622551500070035e-01  4.5005916951461233e-01  5.0664925010384498e-01  2.4514797727889809e-01  6.0207086118651032e-01  4.7436506722748023e-01  5.6917617463679382e-01  1.5480744866135846e-08  2.0166488136080796e-01  4.8462866000250837e-01  5.5818517280414282e-01  3.9298438227438533e-06  6.5443005577972779e-01  6.7352801676240259e-01  6.2825391620676063e-01  1.8425999701706328e-01  7.6324587604759256e-02  9.9999979017808749e-01  5.0242594287679543e-01  8.8387941392347191e-01  7.7328706445544382e-01  6.5269743072701747e-01  5.4067171656561663e-01  6.1220200622461562e-01  5.5352223609976681e-01  1.8736193511829025e-01  9.9998399880081701e-01  9.9999988707967147e-01  3.0550809094707916e-03  5.2927485121007123e-01  1.5438767257908304e-07  9.3824733970230718e-05  5.7978436003627974e-02  3.4792914401576924e-01  9.9999999621847036e-01  9.7951176100138393e-01  9.9999994512781332e-01  4.5000852226225591e-01  4.9130803356051761e-01  8.8495678574843584e-01  4.8873114165195058e-01  1.0000000031077769e+00  2.1369165523528488e-01  2.6503915293530778e-01  6.6525069753070720e-01  2.3272132076095806e-01  7.8732713800232279e-01  8.1978389539425545e-01  5.4879227999577040e-01  5.1527755291581590e-01  2.3458551708725761e-01  5.5960011128333120e-01  5.6032411353117850e-01  5.6904576754025094e-01  6.4853416386127871e-01  6.0368933849660655e-01  9.9999999967728359e-01  4.3670390197273218e-01  4.1203547481206182e-01  5.7132753791864888e-01  9.2648656886067005e-01  9.4655622590463473e-01  5.6716760685935219e-01  4.9134133979145966e-01  6.2531323387526902e-09  3.8071155585346900e-01  5.9290218544479789e-01  4.3833277805997983e-01  4.3462297798212912e-01  4.4849319006397015e-01  5.3556260179025561e-01  4.8517083908642844e-01  4.0173660187608679e-01  3.8572503479063325e-01  4.2209985841440695e-01  5.7224806556856878e-01  2.9521917194729091e-01  8.2888947651534617e-01  3.5623010230221175e-01  7.6299647565782336e-01  7.3372664200188198e-01  7.1890815960524235e-01  1.0007843384485418e+00  9.9767337772649278e-01  5.3225321612780825e-04  6.3504