<?xml version="1.0"?>
<VTKFile type="UnstructuredGrid"  version="0.1"  >
<UnstructuredGrid>
<Piece  NumberOfPoints="1079" NumberOfCells="1944">
<Points>
<DataArray  type="Float64"  NumberOfComponents="3"  format="ascii">0.08500000000000001 0.02 0  0.005 0.02 0  0.005 0.03 0  0 0.03 0  0 0 0  0.005 0 0  0.005 0.01 0  0.08500000000000001 0.01 0  0 0.015 0  0 0.0075 0  0 0.0225 0  0.04500000000000001 0.02 0  0.04500000000000001 0.01 0  0.025 0.01 0  0.025 0.02 0  0.065 0.02 0  0.065 0.01 0  0.035 0.02 0  0.035 0.01 0  0.07500000000000001 0.02 0  0.07500000000000001 0.01 0  0.015 0.02 0  0.015 0.01 0  0.05500000000000001 0.01 0  0.05500000000000001 0.02 0  0.07000000000000001 0.01 0  0.07000000000000001 0.02 0  0.05 0.01 0  0.03 0.01 0  0.03 0.02 0  0.04000000000000001 0.01 0  0.01 0.01 0  0.02 0.02 0  0.06 0.015 0  0.08500000000000001 0.015 0  0.05 0.02 0  0.07250000000000001 0.015 0  0.04000000000000001 0.02 0  0.03750000000000001 0.015 0  0.0525 0.015 0  0.02 0.01 0  0.01 0.02 0  0.0275 0.015 0  0.0125 0.015 0  0.08000000000000002 0.01 0  0.08000000000000002 0.02 0  0.0325 0.014375 0  0.04291666666666667 0.015 0  0.065 0.015 0  0.005 0.005 0  0.005 0.015 0  0.02208333333333334 0.015 0  0.07791666666666668 0.015 0  0.005 0.025 0  0.06 0.01 0  0.06 0.02 0  0.01729166666666667 0.01572916666666667 0  0.04770833333333334 0.01427083333333334 0  0.06875000000000001 0.01625 0  0.008750000000000001 0.01625 0  0.05625000000000001 0.01625 0  0 0.00375 0  0 0.01875 0  0 0.01125 0  0 0.02625 0  0.08145833333333334 0.01354166666666667 0  0.0675 0.01 0  0.0075 0.0125 0  0.0625 0.0175 0  0.0575 0.0125 0  0.0625 0.0125 0  0.08207465277777778 0.01707465277777778 0  0.06767857142857144 0.01321428571428571 0  0.0175 0.01 0  0.01875 0.01291382575757576 0  0.0475 0.02 0  0.04564168086314595 0.01679860519591141 0  0.00296875 0.0125 0  0.0025 0.03 0  0.0025 0 0  0.00296875 0.0175 0  0.01521990740740741 0.0132349537037037 0  0.0497800925925926 0.0167650462962963 0  0.0325 0.02 0  0.03474264705882353 0.01674632352941176 0  0.03750000000000001 0.02 0  0.03025735294117647 0.01674632352941176 0  0.0275 0.02 0  0.0525 0.02 0  0.0125 0.01 0  0.04020833333333334 0.01322916666666667 0  0.03750000000000001 0.01 0  0.0225 0.02 0  0.02479166666666667 0.01677083333333333 0  0.07520833333333335 0.01322916666666667 0  0.07250000000000001 0.01 0  0.07520833333333335 0.01677083333333334 0  0.07250000000000001 0.02 0  0.04020833333333334 0.01677083333333333 0  0.0225 0.01 0  0.02375 0.01262152777777778 0  0.04250000000000001 0.02 0  0.04250000000000001 0.01 0  0.07750000000000001 0.01 0  0.07750000000000001 0.02 0  0.05036151960784314 0.01294424019607843 0  0.0705560064935065 0.01284699675324675 0  0.05458333333333334 0.01291666666666666 0  0.0021875 0.024375 0  0.005 0.0275 0  0.01125 0.0175 0  0.01463848039215686 0.01705575980392157 0  0.01 0.01375 0  0.03625 0.0125 0  0.0021875 0.009375 0  0.05375000000000001 0.0175 0  0.07125000000000001 0.0175 0  0.005 0.0025 0  0.0021875 0.005625 0  0.02655220103578155 0.01234889948210923 0  0.002187499999999999 0.020625 0  0.02979166666666667 0.01302083333333333 0  0.0525 0.01 0  0.07895833333333334 0.0125 0  0.01994277885235332 0.01704213007736944 0  0.07934656179076068 0.01733823814273861 0  0.04505722114764669 0.01295786992263056 0  0.06625 0.0175 0  0.006250000000000001 0.0175 0  0.05750000000000001 0.02 0  0.05875000000000001 0.0175 0  0.005 0.0225 0  0.005 0.0075 0  0.002375 0.027375 0  0.002375 0.002625000000000001 0  0.0475 0.01 0  0.0175 0.02 0  0.0325 0.01 0  0.03375 0.0121875 0  0.04261299435028249 0.01749205508474576 0  0.08500000000000001 0.0125 0  0.08250000000000002 0.01 0  0.02121963399965531 0.01224824108143494 0  0.0675 0.02 0  0.0125 0.02 0  0.02720152243589744 0.0175 0  0.03715165441176471 0.0175 0  0.08500000000000001 0.0175 0  0.0275 0.01 0  0.0025 0.0149560546875 0  0.0075 0.01 0  0.0075 0.02 0  0.06526785714285716 0.0125 0  0.01281031447005516 0.0125 0  0.0625 0.015 0  0.06 0.0125 0  0.05750000000000001 0.01 0  0.0625 0.02 0  0.0625 0.01 0  0.08250000000000002 0.02 0  0.04260103740101855 0.01252623201412851 0  0.02240052247582197 0.01750164767101344 0  0.07293583459427785 0.01238479732953041 0  0.005234374999999999 0.012265625 0  0.03528131980640358 0.01454684009679821 0  0.0325 0.01760027210036557 0  0.02532593822924343 0.01428227733767297 0  0.08009952069819683 0.01527145502895417 0  0.01987282359856536 0.01482587683689801 0  0.04828232595121382 0.01210233572595705 0  0.01671767404878618 0.01789766427404295 0  0.05125 0.01829007549029352 0  0.05247215456215357 0.01288882122882024 0  0.07338729919678716 0.01799385040160642 0  0.03838729919678716 0.01200614959839357 0  0.07717482110586968 0.01780301674207099 0  0.04771860040890012 0.01773306039388322 0  0.03125 0.01160380747126437 0  0.06875000000000001 0.01154265873015873 0  0.07625000000000001 0.01154065860215054 0  0.01625 0.01153997817696946 0  0.068125 0.018125 0  0.05437500000000001 0.015625 0  0.066875 0.015625 0  0.07039794950204951 0.01494384850614853 0  0.05687500000000001 0.018125 0  0.006875 0.015625 0  0.008749999999999999 0.01833333333333333 0  0.010625 0.015625 0  0.05625 0.01416666666666667 0  0.05812500000000001 0.015625 0  0.0449088595298192 0.01494528408816316 0  0 0.016875 0  0 0.013125 0  0.04962452342047931 0.01478673066448802 0  0.0153754765795207 0.01521326933551198 0  0.0771774565913315 0.01322498191305479 0  0.01857756431135545 0.01840228599899994 0  0.04642243568864456 0.01159771400100006 0  0.08125000000000002 0.01155637254901961 0  0.08317650804863432 0.0118234919513657 0  0.08288217288011697 0.01511353252923977 0  0.02837253504384828 0.0117177464035174 0  0.03896057962520807 0.01831163685754031 0  0.01125 0.0114244162490927 0  0.00935910490099115 0.0119067901980177 0  0.02946078431372549 0.01495404411764706 0  0.02875 0.0185829434466942 0  0.002968749999999999 0.0225 0  0.064375 0.016875 0  0.00296875 0.0075 0  0 0.001875 0  0 0.005625 0  0 0.009375 0  0 0.020625 0  0 0.024375 0  0 0.028125 0  0.06062500000000001 0.01812500000000001 0  0.008303571428571429 0.01446428571428572 0  0.01375 0.01865917058160413 0  0.05137790313978056 0.01143372888932909 0  0.04125000000000001 0.01131513063942604 0  0.04101690263896279 0.01844430285842771 0  0.02399563533148224 0.01844349395710867 0  0.08125000000000002 0.01868815426145731 0  0.05354684380692146 0.01145463537600848 0  0.01699195823639423 0.01315138909884649 0  0.07598357371794873 0.015 0  0.04098357371794872 0.015 0  0.003744047619047619 0.00375 0  0.003344630281690141 0.02580853873239437 0  0.04625 0.0187354532243972 0  0.06388392857142858 0.01138392857142858 0  0.06375 0.01375 0  0.05875 0.01375 0  0.06375 0.02 0  0.00622802734375 0.01372802734375 0  0.003630681818181818 0.001369318181818182 0  0.003630681818181818 0.02863068181818182 0  0.06125 0.01625 0  0.06125 0.01125 0  0.05625000000000001 0.01 0  0.05875 0.01125 0  0.06125 0.01375 0  0.08337864763241221 0.0183786476324122 0  0.05213634138653413 0.01674432930673294 0  0.04375000000000001 0.01 0  0.07424178685897437 0.01529258578431373 0  0.03924178685897436 0.01529258578431372 0  0.03410139294454583 0.01843406022904556 0  0.03089860705545417 0.01843406022904556 0  0.02094160484316717 0.01850229584291991 0  0.04375000000000001 0.02 0  0.04437042160883325 0.01820701498672512 0  0.04816311705429156 0.01600061344661149 0  0.07151224904251052 0.0114127410511319 0  0.04395528506193162 0.01639387970349481 0  0.0128750358694518 0.0167500179347259 0  0.02855808448399799 0.01642839899839741 0  0.02812690373330794 0.01340955081400569 0  0.08358500641945087 0.01351822349116885 0  0.05590277777777778 0.01173611111111111 0  0.06683110430364615 0.01164926404662283 0  0.02573206694914602 0.01842532451809762 0  0.01438126661842046 0.01166701193099454 0  0.02384283211216029 0.01526549696571563 0  0.03625 0.02 0  0.004609375000000001 0.0182421875 0  0.003398437500000001 0.01943359375 0  0.001728307845744682 0.01894718251329787 0  0.004377805359085963 0.01656966216675735 0  0.04649673309852075 0.0153889662370871 0  0.03615513600614297 0.01592654988586041 0  0.03316985071935832 0.01598763605018279 0  0.03110111603888768 0.01529816275177977 0  0.01370614113484869 0.0138804542047638 0  0.04930041102671841 0.01842260568883502 0  0.07875000000000001 0.02 0  0.0745395359848485 0.01165101111925709 0  0.03860755698543604 0.01373741558556884 0  0.02605038706571737 0.01573944002207753 0  0.07559826163500957 0.01841729376139847 0  0.04437500000000001 0.01149157931286774 0  0.06874116707361365 0.01454618473032123 0  0.003761917372881356 0.0239307468220339 0  0.003984374999999999 0.01125 0  0.003768503289473684 0.01392539576480263 0  0.001796875 0.0111328125 0  0.003761917372881356 0.008930746822033899 0  0.005 0.00625 0  0.003761917372881355 0.0210692531779661 0  0.06633928571428571 0.01410714285714285 0  0.006484375 0.01125 0  0.08364120589325512 0.01657288979763549 0  0.03576267476503373 0.0184116442851204 0  0.07370875846579374 0.0137848203678562 0  0.06964285714285715 0.01758928571428571 0  0.05520833333333334 0.01833333333333333 0  0.06491071428571429 0.01839285714285714 0  0.0510098951944636 0.01559941474766356 0  0.01786087179886325 0.0115702210443714 0  0.01972197383235524 0.01160576093166696 0  0.01804697593127788 0.01433503795474974 0  0.001644074528704677 0.01642892723865279 0  0.00125 0.03 0  0.001497685185185185 0.001267746913580247 0  0.07315451164202422 0.01643443118912983 0  0.001233906745910645 0.0140625 0  0.01162635071030191 0.01362229857939618 0  0.01528023503083844 0.01845923557506155 0  0.06625 0.02 0  0.07695012019230771 0.01624387078484555 0  0.03139091092855769 0.01320776147621796 0  0.03857339107781042 0.01675295051810485 0  0.001754993120977522 0.02590789105493891 0  0.002288757784711197 0.00412546923654445 0  0.07914382119690884 0.01404430049871201 0  0.001391810103286306 0.01257390899021902 0  0.0419501201923077 0.01614675005432421 0  0.001484375 0.007018229166666667 0  0.001484375 0.02201822916666666 0  0.048
[...]
<PointData  Scalars="concentration"> 
<DataArray  type="Float64"  Name="concentration"  format="ascii">8.6604235245113148e-01  1.0021460764403671e+00  9.9999999999999889e-01  9.9999999999999889e-01  -1.2924697071141055e-22  -8.5968005830037813e-22  -2.9139093164205817e-03  1.9325957329839719e-01  6.4977818907321339e-01  -1.8579611900943407e-04  9.9943764636325072e-01  9.7235845994578007e-01  5.7158942169157838e-02  3.6854630104906634e-03  9.9843500289913034e-01  9.2275560093843811e-01  1.1906509317477600e-01  9.8916088474955111e-01  2.1981507390047769e-02  8.9806408183376174e-01  1.5569204770681996e-01  9.9965401914657959e-01  -2.8509018197794712e-03  9.1505803168815347e-02  9.4860066088488293e-01  1.4284412307803995e-01  9.1518074120952775e-01  7.8331203647367356e-02  8.7305103654761185e-03  9.9640460416869192e-01  4.3510941871477568e-02  -4.8326166505725039e-04  1.0006431959942323e+00  5.5087126828642030e-01  5.4162265463492165e-01  9.6080232848579672e-01  5.4302913076133430e-01  9.8221353330615713e-01  5.6267387544037217e-01  5.5107610461191670e-01  3.5871632607358895e-03  1.0000078912093837e+00  5.7435631221972605e-01  6.1163206847302931e-01  1.7093747529135361e-01  8.8495478978309394e-01  4.4065541388044066e-01  5.5670937599688319e-01  5.4579324330623347e-01  1.5456152782972955e-05  6.9462193204299205e-01  5.8682493121971324e-01  5.4261370282818233e-01  1.0000056530957524e+00  1.1180299443673621e-01  9.3685889267678069e-01  7.8042678245904207e-01  4.3598158336241072e-01  6.9923534848560087e-01  9.9259892706091934e-01  7.2472164191364807e-01  -2.6500947778889668e-06  1.0002897505965445e+00  -3.7911843817714664e-03  1.0000391972850509e+00  3.7344336591335264e-01  1.3231362877690606e-01  -1.9374819836643957e-02  8.3975420374690135e-01  2.1643670211005603e-01  2.3027269629732308e-01  7.5972257376075747e-01  3.1776543767609294e-01  -1.5033610597582003e-03  1.1403652170913750e-01  9.6799433253490574e-01  8.1318333746349136e-01  1.3061200746261261e-02  9.9999999999999867e-01  -4.4832294007590978e-22  9.9274179734748635e-01  1.2435164399236591e-01  7.9810795585704519e-01  9.9383703696117076e-01  8.4153951924248960e-01  9.8510216823771179e-01  8.6350124273600604e-01  1.0014901850451667e+00  9.5295927333229757e-01  1.9618526225794598e-03  2.5908695300313828e-01  3.4541536346985376e-02  1.0011588962250930e+00  8.8966302540325104e-01  3.3007522363784553e-01  1.4308117062899400e-01  7.4436622443707123e-01  9.0506545874191635e-01  8.2962249339596450e-01  -4.0747566868940720e-04  1.0099734140531033e-01  9.8074244472722394e-01  4.5024122273147928e-02  1.5534908685678495e-01  8.9595939264630409e-01  2.5074267815143242e-01  2.8141721938402153e-01  2.5528187334157004e-01  1.0002610025275556e+00  9.9999203145396898e-01  1.0039802479447100e+00  9.7687131758896306e-01  1.6613533287352966e-01  1.4678761114755107e-01  4.8744355766822513e-04  8.6039678466513503e-01  8.2045525708368783e-01  -2.4016180806262474e-06  -2.4845030477042199e-05  8.7627450133170900e-02  9.9892760688783155e-01  1.9221907456488035e-01  8.4087848847409732e-02  2.6526943048811502e-01  9.5313508043890827e-01  7.8949646745042612e-01  2.3730818125406297e-01  8.2994244157533026e-01  9.8650962999581460e-01  9.4488610223864067e-01  8.4941206397879920e-01  9.9996800342376368e-01  -1.5870735519070474e-04  1.0000262624179568e+00  5.7209411426908622e-06  6.8200915562926401e-02  9.9803652296439449e-01  1.7120817898554967e-02  1.0643526890154799e-01  8.9512459357722118e-01  2.8723067633696542e-01  1.7687317612017828e-01  4.6331786321367960e-02  9.1713282373695026e-01  9.9947749242747075e-01  9.4963411742170745e-01  9.0426738221545577e-01  7.8219774052290525e-01  7.0949481874236896e-03  6.5525366272834584e-01  -3.0395682417377299e-04  1.0022685896581873e+00  2.3539424595353475e-01  1.6513475798891897e-02  5.4585522307322898e-01  2.2833765378210910e-01  9.9834823507393824e-02  9.3295647432590989e-01  1.1407577684937066e-01  8.8230341967516146e-01  1.7771871760275812e-01  9.7151716938639476e-01  2.4205304061626279e-01  -9.1918735912079139e-03  4.7665923336099159e-01  9.3322752860849900e-01  4.1006490695678244e-01  5.7474821137427978e-01  5.4461339482022886e-01  1.4879155423481488e-01  9.9973600940441631e-01  9.1984637272663816e-01  2.4819144667760723e-01  8.4990115954198275e-01  1.1449632831065869e-01  8.3027408370629607e-01  8.9547642161971230e-01  5.7918874184277609e-02  1.7303968595519664e-01  1.9382792446752098e-01  3.5286638707041976e-03  8.6791353013630146e-01  6.4416904393558017e-01  6.2909881705983062e-01  5.3744107996605661e-01  8.9535889445002348e-01  8.7887901794157564e-01  1.0014746857366579e+00  8.2736024473243008e-01  4.2652791467091972e-01  6.3999891171426404e-01  5.4745718278180822e-01  1.0022333402189543e+00  5.7705169553777559e-03  5.1912654124879143e-01  6.6747188848199834e-01  3.3173650367333074e-01  9.9480451837395045e-01  1.0740830099086952e-01  2.1007404229820664e-01  2.3186265999843023e-01  5.5484598857429890e-01  4.6645141580116067e-02  9.5273750378380806e-01  -1.6662132224533547e-03  9.2271581181368403e-07  5.6231413662573082e-01  9.8822725357156338e-01  1.0002747670762420e+00  7.7648141442101670e-01  -5.7113736265374318e-05  -9.7124111458267309e-06  5.6696366428645334e-05  -6.6062057940697162e-04  9.9831039144339540e-01  9.9993443699427953e-01  1.0000126080548188e+00  8.8855705748503233e-01  3.7843555962096259e-01  9.9987975469522328e-01  1.1246377035056261e-01  7.0163511645227050e-02  9.5767934224875761e-01  9.9515943994172018e-01  8.6325649093566037e-01  1.2265797673156405e-01  1.2535005018032475e-01  5.4347133676893988e-01  5.5923600907572313e-01  -5.1882548420408433e-06  9.9999129520643992e-01  9.5320554994913897e-01  1.4912182893053788e-01  3.7525766639205183e-01  3.7293271831003921e-01  9.2672801525425852e-01  7.4713059065037238e-02  1.8731701801850995e-06  1.0000054547429069e+00  7.1251843815838301e-01  1.3629354001856300e-01  9.5869037084244990e-02  1.2778043582211102e-01  3.7489926298259879e-01  8.4281801260265365e-01  7.9153700663798532e-01  5.3564011166002345e-02  5.7967271917444074e-01  6.1228918194720094e-01  9.7039797859248267e-01  9.7685337270591088e-01  9.9851110251504216e-01  9.7383176306474584e-01  9.3233974428616528e-01  7.0369293614341899e-01  1.7458693993062052e-01  7.7180669504014054e-01  9.7479142935346785e-01  8.3111460463033215e-01  2.4867255176600478e-01  3.7868676982835991e-01  1.4721462837789812e-01  1.7674440999453619e-01  9.8705744733158252e-01  1.5347973564262766e-03  6.3647713948455975e-01  9.9215578558239337e-01  9.9979400440979371e-01  9.9834215461122322e-01  9.9684956485967535e-01  9.9322420063343142e-01  6.1875575733519261e-01  7.2533297893526971e-01  7.4696189493920861e-01  6.2876518736336628e-01  2.4535820858212590e-01  9.3040920652039127e-01  8.9004028908501032e-01  1.9450416527788061e-01  3.3492288716677543e-01  7.3018427903007355e-01  8.6560592426841010e-01  9.4941211285650709e-02  4.8496040961144499e-01  1.0000137187964522e+00  4.3583989461897579e-03  1.0151476886557220e-01  2.8824407121458722e-03  -3.9180802025555049e-04  2.8254642351872970e-06  1.0004187581257442e+00  4.2494873685058948e-01  -3.0368354134522415e-03  7.0647793555467941e-01  9.6704624762665337e-01  3.9164534396029166e-01  8.3019813534348474e-01  9.1350225213842917e-01  8.9185820845950592e-01  6.4262498406192581e-01  8.0061370371815009e-03  8.4713330127418503e-03  4.1445729291939010e-01  9.8731045427816178e-01  9.9999999999999956e-01  2.1987331098431408e-06  7.1323511786737070e-01  1.3449383107604612e-01  1.6123170572879317e-01  1.0008642093915336e+00  9.2396258747071980e-01  6.8999579835641933e-01  2.2831523563836545e-01  8.3068203115332018e-01  1.0000154901227452e+00  1.4173963439074295e-06  4.2764446153657382e-01  -2.5605704182782369e-02  7.4399478241343608e-01  1.1615630026649562e-04  1.0004978568099592e+00  3.1233383472737947e-01  1.1367814975129124e-01  9.4086823433094258e-01  3.9199131230684175e-01  2.6572607328547038e-01  9.5065943446066858e-01  3.6618884092499732e-01  7.9340897225124241e-01  3.6006941243898083e-01  3.8860979619197406e-01  9.3652762034099196e-02  7.8495247606662344e-01  2.8391166747757929e-01  1.7565783903432991e-01  2.8487082962484814e-02  -1.4113069274757202e-05  1.3224141956500388e-03  2.5382346527653133e-02  2.9194368813760024e-01  4.1267207661961208e-01  1.9209838710926941e-01  9.9997826715804028e-01  -9.0661439544866207e-06  2.1980516873446710e-04  3.9565538669158608e-02  9.9999281357534786e-01  3.0916193479154785e-01  2.2364047033233433e-01  8.9210563656760988e-01  7.7147648894739207e-01  7.9970748223392019e-01  9.0354442079558983e-01  8.8623680767880664e-01  1.0078705260747016e+00  6.4431343255467038e-02  2.9349031008233509e-02  6.7743910050710329e-02  1.0053744941502860e+00  9.9432221855750358e-01  7.4196696359425751e-01  7.0757395218152930e-01  9.2458565978848684e-01  9.2984378445107851e-01  3.5879634406786698e-01  9.9985086877905294e-01  9.1343044176311572e-01  9.9926160026051469e-01  1.0004436420674563e+00  9.9757540753007501e-01  6.7197307867982903e-01  7.8961773994585938e-01  6.2273857544944111e-01  5.1785671294116609e-01  2.1738886620279761e-02  1.7160529333468205e-01  4.4075268552340530e-01  7.8989615145379100e-01  8.7424969224622351e-01  6.6083630968203899e-01  2.6574612285316313e-05  9.5351015243785631e-01  2.8178398190399112e-01  1.6764431673319416e-01  1.9650149534517233e-01  1.0002719086613208e+00  7.0696723732967412e-02  1.0025834888081937e+00  8.1123715147927000e-01  6.9864958335557181e-01  1.0374554818480488e+00  3.5417949146053263e-04  4.3523939516696710e-04  8.8065825499655426e-01  -4.8281692175923454e-03  1.5618911408458780e-01  9.4418666610756008e-01  6.3269926468651727e-01  9.1524737264558076e-01  9.3311361313382890e-01  3.3374145710612324e-01  7.9236981977115317e-01  -8.0628451786551800e-03  2.1309926247085592e-01  9.9999580294785206e-01  -5.8236932788146248e-06  1.0000090947371132e+00  1.5218729484536953e-01  3.5288546272658994e-01  3.9099375087454863e-01  -2.0809127826380760e-04  6.7240801714753584e-01  9.6275813458426363e-01  -2.8083807174222766e-03  1.0314676028731224e+00  2.1373141928751435e-01  1.8331616232573097e-01  9.1090487113897678e-01  9.1670822855138345e-01  9.0356437202594253e-01  3.4483036058690165e-02  8.9849476200384359e-01  2.0809381505690083e-01  5.3002438808012017e-02  2.5324481181892181e-02  1.0769664476461507e-01  7.2633710043870292e-01  3.7101875257459571e-01  2.2191316012241922e-02  7.2218514893906641e-02  9.7588315274641724e-01  7.7042344378316019e-01  8.4312290343568386e-01  1.6895576835559165e-01  -3.5220897233986218e-03  8.0931096202262320e-01  9.1170284516286371e-01  9.9075532337005778e-01  8.8589739056973316e-01  9.0782044383710181e-01  1.4769027831052048e-01  3.7809025619962378e-01  2.7630544938036233e-01  5.5902510429922973e-04  7.3685905652614325e-01  2.1215398229679813e-02  9.6045400859204444e-01  9.9746805175128850e-01  9.0916893857591730e-01  8.9433126901427817e-01  9.6208907840686875e-01  9.9884540994080118e-01  1.3692515733568703e-01  9.9188912743345292e-01  7.1142902159710142e-01  1.2784832148900482e-01  1.2429540939675197e-01  8.7197529774823035e-02  8.8091472067196697e-01  1.0003298973916963e+00  7.3365522265715549e-02  4.3191599952157725e-02  9.8357516185132643e-01  1.7409693879129068e-01  1.6206244974910247e-01  1.3755147927985997e-01  9.5890627950186069e-01  9.8363422555384017e-01  1.0000320066992292e+00  6.7424528376259407e-01  1.2237997434677222e-01  1.3743931955357802e-01  9.9985614134872203e-01  5.2476411489776908e-04  9.9964428847443043e-01  -1.6450806399330891e-03  4.9164404059604558e-04  2.4004560174132553e-03  2.6606140880409751e-21  6.1649330854883430e-06  -9.0899727534345509e-07  1.0000000000000016e+00  1.9488771878807412e-21  3.5160591788897387e-03  1.0069078131266995e+00  1.0001821454646902e+00  4.0345793325997747e-01  9.9947793121450723e-01  3.7511459964215249e-01  1.0000066951080175e+00  9.9702785121590376e-01  1.5191267960449397e-02  1.0013152859711241e+00  1.5078400483224457e-02  1.0000187974563157e+00  8.4969835481961353e-01  9.9785119546422696e-01  9.3430526058905161e-01  5.4593050481162997e-01  3.6743584779516131e-01  2.1981058403256323e-01  1.3167234724515350e-01  9.9599258153611189e-02  2.2579095235237892e-01  1.0545395246678574e-01  9.7175404293183210e-01  6.0937119617648444e-02  9.4695019267125213e-01  8.7500753026267331e-01  1.7908587350479863e-01  7.6106822209809388e-01  9.5455184770311641e-01  8.7392611349640870e-01  4.2852472677252940e-01  1.0769649283335417e-02  1.4230496602454854e-02  2.6372215444916802e-01  4.6991273528812044e-01  8.8669935382451659e-01  3.1085486559482850e-01  1.9038301135266575e-01  2.7883712502982771e-01  5.7990199819418720e-01  1.0013355613766215e+00  8.1714336389662523e-01  9.8645231938916678e-01  9.0878203973726090e-01  8.7458093340549525e-01  7.6808079951470087e-05  8.8235399683472637e-01  4.9525629474549407e-06  1.0016674541309254e+00  9.3449430076019746e-01  5.7979985181782845e-01  3.9676856657298881e-01  1.1200046614886965e-01  2.4362424201152993e-01  4.0537091173374068e-01  9.9872439794372103e-01  8.3175048937061502e-01  7.3828252861581634e-01  9.9993745182970073e-01  4.3894419660024012e-02  2.7359625264052773e-01  4.5178250382122465e-01  4.1991992615921003e-01  3.4060793558524051e-03  4.2874433238869218e-03  -1.5805669109521078e-02  8.6452314616591097e-01  6.8361044051911835e-01  4.2927572090665495e-01  9.2094229825335217e-01  7.1554776738488746e-01  8.5442266508032683e-01  8.5189812666861409e-01  6.7468794903735958e-03  8.2879674678924364e-01  1.0030346899769671e+00  2.7002639449615318e-01  7.9971120668702836e-02  9.5489594868261474e-01  3.7094554476451025e-01  4.2672155109163995e-01  8.9387674579034981e-01  9.8059469475916117e-01  4.3320071198132484e-03  7.0413781184398982e-01  7.7879801827172579e-01  4.9841111428997265e-01  8.0176587638239027e-01  2.7553400808813755e-01  4.0288291634413376e-01  9.9998880929980249e-01  5.9869311170908202e-01  8.2065113689297109e-01  1.8275680603390138e-01  5.7780146913640296e-01  3.4286372294590847e-02  -4.6137172601360995e-05  2.4898619458171578e-01  1.3556363018146278e-01  2.2919334201062042e-02  9.7929800101384168e-01  9.9925724076638001e-01  8.3658098213452958e-01  9.6773054393973446e-01  4.6421189180736877e-01  7.5132969438978667e-02  5.0806395127000603e-01  -3.7698129212921765e-06  4.4223225007329399e-02  8.9362416888072771e-01  2.3153153621667286e-01  3.5093195323940535e-01  9.0253556384620059e-01  7.3432754890185692e-02  8.8119738237384809e-04  6.7040231730104038e-01  4.9809811557105788e-01  9.5258862276035194e-01  6.4425039490811875e-01  2.4540449027970429e-01  2.4346831539785310e-01  5.0655465689457786e-02  5.9746240580909871e-01  5.4449414998233603e-01  1.0013820795381756e+00  -4.8181899016452793e-05  -4.3715686096443219e-04  9.9955481087449394e-01  2.6380098864147583e-01  9.1412987970173065e-01  9.9257297530619448e-01  9.9977413719317765e-01  9.9852236768337965e-01  1.0005398540014407e+00  7.0587391157216672e-01  4.1321846161874343e-01  6.7914734985381997e-01  1.9974371264420812e-01  3.8695648820105494e-01  1.1401425125140204e-01  5.4030951875360200e-01  9.4882605887998117e-01  9.2722629829319125e-01  9.7285467319298846e-01  6.5031128967170668e-07  9.9147013382245075e-01  9.9999628163596921e-01  5.4463530490369549e-01  5.1021607705452177e-01  9.5707063902628930e-01  3.7392526387809261e-01  3.4083212124825846e-01  9.9968964968859153e-01  1.0000399713893491e+00  -7.4238632746002542e-03  9.8908690475246341e-01  1.9717127222878745e-05  9.6944743621037999e-02  2.0485998745988773e-02  9.9986571027864879e-01  9.9935082981312551e-01  -2.9629390098252206e-06  9.1653350323495586e-01  9.6101902627232560e-01  9.8815564160974911e-01  4.3703472842711300e-01  7.2451970793467446e-01  9.9994812319260684e-01  3.3616531199134620e-04  4.1525776736008359e-02  5.7575219031781224e-06  1.0039730454110261e+00  1.0035933778449679e+00  1.7903226134627967e-01  3.9803544008054903e-01  7.1360609086262594e-01  2.7687059869283936e-01  1.7845619564699453e-01  1.8251794980296326e-01  5.3404296655325667e-01  3.7990880806365840e-01  6.7655598885082668e-01  8.5511609191984805e-02  2.3738671711941964e-01  1.4277595325316730e-01  9.5813910058654561e-01  6.6627687926867873e-01  8.7106195571533074e-01  6.4325784465025526e-01  4.5975178540278816e-01  1.6913309888693134e-01  1.6759884712936676e-01  2.3459259530788792e-01  2.6535859796533651e-01  -2.3498794877009335e-03  1.3319506578019351e-02  -1.2731436573534480e-03  9.2084544227758647e-01  9.1716654930425046e-01  8.0434674154654517e-01  7.6624714633788082e-01  9.4320644477093252e-01  9.0845036019255421e-01  6.6839893805650785e-01  9.3814701167838710e-01  8.5012881863064749e-01  7.9952127879238677e-01  5.9917187363912638e-01  1.0315781379336688e+00  9.8541488695110802e-01  4.8511031568966223e-01  8.3218653013326938e-01  7.3814772194708955e-01  5.8671580315939320e-01  8.0881210078072796e-01  8.7344727085408125e-01  7.4327270010426294e-01  8.5844502859720773e-01  8.5343509130229644e-01  5.6519088025449526e-01  9.2687952184613032e-01  5.4658748520662814e-01  6.1275605023521484e-01  1.6948498683740490e-01  9.4109325154426116e-01  6.6599331016807783e-01  9.2606568606628250e-07  6.4858603517819913e-01  7.0495373563274477e-01  1.0526734467972993e-03  4.3574226591927578e-01  1.0001691165077313e+00  9.8681768056557939e-01  9.3818894752567872e-01  -8.9684016691938626e-03  -5.6226749940095303e-03  8.4096122968343090e-01  1.4372079688559705e-01  9.5481914137054047e-01  9.7151506283644673e-01  2.2921133364288051e-02  2.2577022181994477e-01  1.8574041426441185e-01  2.4474184511470137e-01  1.3613354222571009e-01  9.9970854270739473e-01  5.3092941717494058e-01  4.0511986314447440e-01  7.2802457880028115e-01  6.6596525715113108e-01  3.6993606442638349e-01  3.8937718548301031e-01  5.2740137790353352e-02  7.7840458043454366e-02  1.9930452394834305e-01  9.4986327689004404e-02  1.6213523045414562e-02  8.0595684719136806e-02  1.0000120438086013e+00  7.0428385236692807e-03  1.0156899122918839e-01  1.0799421676085061e-01  2.6641630918549652e-01  4.4686467501663135e-02  7.4096318535193340e-01  4.3143668571739469e-01  8.5038010175282808e-01  3.7202325461663718e-06  -2.5149253141519201e-03  4.4552800677129112e-01  6.3934086472326246e-01  -3.2182050841976880e-05  9.2036141565519869e-01  9.6735043943379706e-01  8.6124592368480779e-01  5.8097272144796031e-04  9.2411713824758570e-04  9.9998785831238213e-01  4.9417435378643737e-01  1.0023719542468750e+00  9.9626224890243675e-01  9.4646319663517453e-01  5.7961649893792577e-01  8.6702214615799889e-01  7.0959813078822853e-01  3.4837334776144616e-03  1.0002447706569069e+00  1.0001255025261087e+00  2.0116280220998191e-03  5.0227575747028907e-01  6.8711174767161939e-06  1.0677573528363925e-04  1.5025409973734447e-02  2.1373844812452725e-01  1.0000201168264433e+00  9.9759408160898433e-01  1.0000664464782874e+00  3.6482723019995539e-01  2.1212084442389445e-01  1.0027852014763035e+00  1.6202649713258821e-01  9.9994225024674088e-01  1.8072332856077417e-02  5.7077618748946721e-02  9.3058508880416912e-01  4.5890594816777389e-03  9.8595746714407340e-01  9.9810370083538047e-01  6.4634705788102809e-01  3.3636702635254401e-01  2.6032530106816838e-02  7.8657610300203551e-01  7.8803222336236489e-01  8.7093836512223866e-01  8.7837452440269925e-01  7.6044228515074530e-01  9.9996120591082871e-01  2.6293694107297572e-01  3.1519335323102776e-01  6.6823944171741301e-01  9.9939378661156997e-01  9.9960346532413946e-01  7.8382096774691667e-01  1.6164027052753446e-01  2.0912312942164917e-06  1.9092848276799898e-01  6.9200691594299724e-01  1.7943070192320790e-01  9.3250132127710009e-02  1.6667116317044209e-01  5.3339543434509051e-01  2.8542344828835770e-01  9.7037972446407619e-02  5.4942883767902545e-02  8.3125828942991031e-02  8.7997668094152404e-01  1.5400433870814849e-02  9.9583309372620499e-01  1.9287203296981137e-01  9.9372010391301291e-01  9.8881016619501172e-01  9.6397107822980110e-01  9.9779487509232301e-01  9.9585281685894356e-01  -