<?xml version="1.0"?>
<VTKFile type="UnstructuredGrid"  version="0.1"  >
<UnstructuredGrid>
<Piece  NumberOfPoints="1079" NumberOfCells="1944">
<Points>
<DataArray  type="Float64"  NumberOfComponents="3"  format="ascii">0.08500000000000001 0.02 0  0.005 0.02 0  0.005 0.03 0  0 0.03 0  0 0 0  0.005 0 0  0.005 0.01 0  0.08500000000000001 0.01 0  0 0.015 0  0 0.0075 0  0 0.0225 0  0.04500000000000001 0.02 0  0.04500000000000001 0.01 0  0.025 0.01 0  0.025 0.02 0  0.065 0.02 0  0.065 0.01 0  0.035 0.02 0  0.035 0.01 0  0.07500000000000001 0.02 0  0.07500000000000001 0.01 0  0.015 0.02 0  0.015 0.01 0  0.05500000000000001 0.01 0  0.05500000000000001 0.02 0  0.07000000000000001 0.01 0  0.07000000000000001 0.02 0  0.05 0.01 0  0.03 0.01 0  0.03 0.02 0  0.04000000000000001 0.01 0  0.01 0.01 0  0.02 0.02 0  0.06 0.015 0  0.08500000000000001 0.015 0  0.05 0.02 0  0.07250000000000001 0.015 0  0.04000000000000001 0.02 0  0.03750000000000001 0.015 0  0.0525 0.015 0  0.02 0.01 0  0.01 0.02 0  0.0275 0.015 0  0.0125 0.015 0  0.08000000000000002 0.01 0  0.08000000000000002 0.02 0  0.0325 0.014375 0  0.04291666666666667 0.015 0  0.065 0.015 0  0.005 0.005 0  0.005 0.015 0  0.02208333333333334 0.015 0  0.07791666666666668 0.015 0  0.005 0.025 0  0.06 0.01 0  0.06 0.02 0  0.01729166666666667 0.01572916666666667 0  0.04770833333333334 0.01427083333333334 0  0.06875000000000001 0.01625 0  0.008750000000000001 0.01625 0  0.05625000000000001 0.01625 0  0 0.00375 0  0 0.01875 0  0 0.01125 0  0 0.02625 0  0.08145833333333334 0.01354166666666667 0  0.0675 0.01 0  0.0075 0.0125 0  0.0625 0.0175 0  0.0575 0.0125 0  0.0625 0.0125 0  0.08207465277777778 0.01707465277777778 0  0.06767857142857144 0.01321428571428571 0  0.0175 0.01 0  0.01875 0.01291382575757576 0  0.0475 0.02 0  0.04564168086314595 0.01679860519591141 0  0.00296875 0.0125 0  0.0025 0.03 0  0.0025 0 0  0.00296875 0.0175 0  0.01521990740740741 0.0132349537037037 0  0.0497800925925926 0.0167650462962963 0  0.0325 0.02 0  0.03474264705882353 0.01674632352941176 0  0.03750000000000001 0.02 0  0.03025735294117647 0.01674632352941176 0  0.0275 0.02 0  0.0525 0.02 0  0.0125 0.01 0  0.04020833333333334 0.01322916666666667 0  0.03750000000000001 0.01 0  0.0225 0.02 0  0.02479166666666667 0.01677083333333333 0  0.07520833333333335 0.01322916666666667 0  0.07250000000000001 0.01 0  0.07520833333333335 0.01677083333333334 0  0.07250000000000001 0.02 0  0.04020833333333334 0.01677083333333333 0  0.0225 0.01 0  0.02375 0.01262152777777778 0  0.04250000000000001 0.02 0  0.04250000000000001 0.01 0  0.07750000000000001 0.01 0  0.07750000000000001 0.02 0  0.05036151960784314 0.01294424019607843 0  0.0705560064935065 0.01284699675324675 0  0.05458333333333334 0.01291666666666666 0  0.0021875 0.024375 0  0.005 0.0275 0  0.01125 0.0175 0  0.01463848039215686 0.01705575980392157 0  0.01 0.01375 0  0.03625 0.0125 0  0.0021875 0.009375 0  0.05375000000000001 0.0175 0  0.07125000000000001 0.0175 0  0.005 0.0025 0  0.0021875 0.005625 0  0.02655220103578155 0.01234889948210923 0  0.002187499999999999 0.020625 0  0.02979166666666667 0.01302083333333333 0  0.0525 0.01 0  0.07895833333333334 0.0125 0  0.01994277885235332 0.01704213007736944 0  0.07934656179076068 0.01733823814273861 0  0.04505722114764669 0.01295786992263056 0  0.06625 0.0175 0  0.006250000000000001 0.0175 0  0.05750000000000001 0.02 0  0.05875000000000001 0.0175 0  0.005 0.0225 0  0.005 0.0075 0  0.002375 0.027375 0  0.002375 0.002625000000000001 0  0.0475 0.01 0  0.0175 0.02 0  0.0325 0.01 0  0.03375 0.0121875 0  0.04261299435028249 0.01749205508474576 0  0.08500000000000001 0.0125 0  0.08250000000000002 0.01 0  0.02121963399965531 0.01224824108143494 0  0.0675 0.02 0  0.0125 0.02 0  0.02720152243589744 0.0175 0  0.03715165441176471 0.0175 0  0.08500000000000001 0.0175 0  0.0275 0.01 0  0.0025 0.0149560546875 0  0.0075 0.01 0  0.0075 0.02 0  0.06526785714285716 0.0125 0  0.01281031447005516 0.0125 0  0.0625 0.015 0  0.06 0.0125 0  0.05750000000000001 0.01 0  0.0625 0.02 0  0.0625 0.01 0  0.08250000000000002 0.02 0  0.04260103740101855 0.01252623201412851 0  0.02240052247582197 0.01750164767101344 0  0.07293583459427785 0.01238479732953041 0  0.005234374999999999 0.012265625 0  0.03528131980640358 0.01454684009679821 0  0.0325 0.01760027210036557 0  0.02532593822924343 0.01428227733767297 0  0.08009952069819683 0.01527145502895417 0  0.01987282359856536 0.01482587683689801 0  0.04828232595121382 0.01210233572595705 0  0.01671767404878618 0.01789766427404295 0  0.05125 0.01829007549029352 0  0.05247215456215357 0.01288882122882024 0  0.07338729919678716 0.01799385040160642 0  0.03838729919678716 0.01200614959839357 0  0.07717482110586968 0.01780301674207099 0  0.04771860040890012 0.01773306039388322 0  0.03125 0.01160380747126437 0  0.06875000000000001 0.01154265873015873 0  0.07625000000000001 0.01154065860215054 0  0.01625 0.01153997817696946 0  0.068125 0.018125 0  0.05437500000000001 0.015625 0  0.066875 0.015625 0  0.07039794950204951 0.01494384850614853 0  0.05687500000000001 0.018125 0  0.006875 0.015625 0  0.008749999999999999 0.01833333333333333 0  0.010625 0.015625 0  0.05625 0.01416666666666667 0  0.05812500000000001 0.015625 0  0.0449088595298192 0.01494528408816316 0  0 0.016875 0  0 0.013125 0  0.04962452342047931 0.01478673066448802 0  0.0153754765795207 0.01521326933551198 0  0.0771774565913315 0.01322498191305479 0  0.01857756431135545 0.01840228599899994 0  0.04642243568864456 0.01159771400100006 0  0.08125000000000002 0.01155637254901961 0  0.08317650804863432 0.0118234919513657 0  0.08288217288011697 0.01511353252923977 0  0.02837253504384828 0.0117177464035174 0  0.03896057962520807 0.01831163685754031 0  0.01125 0.0114244162490927 0  0.00935910490099115 0.0119067901980177 0  0.02946078431372549 0.01495404411764706 0  0.02875 0.0185829434466942 0  0.002968749999999999 0.0225 0  0.064375 0.016875 0  0.00296875 0.0075 0  0 0.001875 0  0 0.005625 0  0 0.009375 0  0 0.020625 0  0 0.024375 0  0 0.028125 0  0.06062500000000001 0.01812500000000001 0  0.008303571428571429 0.01446428571428572 0  0.01375 0.01865917058160413 0  0.05137790313978056 0.01143372888932909 0  0.04125000000000001 0.01131513063942604 0  0.04101690263896279 0.01844430285842771 0  0.02399563533148224 0.01844349395710867 0  0.08125000000000002 0.01868815426145731 0  0.05354684380692146 0.01145463537600848 0  0.01699195823639423 0.01315138909884649 0  0.07598357371794873 0.015 0  0.04098357371794872 0.015 0  0.003744047619047619 0.00375 0  0.003344630281690141 0.02580853873239437 0  0.04625 0.0187354532243972 0  0.06388392857142858 0.01138392857142858 0  0.06375 0.01375 0  0.05875 0.01375 0  0.06375 0.02 0  0.00622802734375 0.01372802734375 0  0.003630681818181818 0.001369318181818182 0  0.003630681818181818 0.02863068181818182 0  0.06125 0.01625 0  0.06125 0.01125 0  0.05625000000000001 0.01 0  0.05875 0.01125 0  0.06125 0.01375 0  0.08337864763241221 0.0183786476324122 0  0.05213634138653413 0.01674432930673294 0  0.04375000000000001 0.01 0  0.07424178685897437 0.01529258578431373 0  0.03924178685897436 0.01529258578431372 0  0.03410139294454583 0.01843406022904556 0  0.03089860705545417 0.01843406022904556 0  0.02094160484316717 0.01850229584291991 0  0.04375000000000001 0.02 0  0.04437042160883325 0.01820701498672512 0  0.04816311705429156 0.01600061344661149 0  0.07151224904251052 0.0114127410511319 0  0.04395528506193162 0.01639387970349481 0  0.0128750358694518 0.0167500179347259 0  0.02855808448399799 0.01642839899839741 0  0.02812690373330794 0.01340955081400569 0  0.08358500641945087 0.01351822349116885 0  0.05590277777777778 0.01173611111111111 0  0.06683110430364615 0.01164926404662283 0  0.02573206694914602 0.01842532451809762 0  0.01438126661842046 0.01166701193099454 0  0.02384283211216029 0.01526549696571563 0  0.03625 0.02 0  0.004609375000000001 0.0182421875 0  0.003398437500000001 0.01943359375 0  0.001728307845744682 0.01894718251329787 0  0.004377805359085963 0.01656966216675735 0  0.04649673309852075 0.0153889662370871 0  0.03615513600614297 0.01592654988586041 0  0.03316985071935832 0.01598763605018279 0  0.03110111603888768 0.01529816275177977 0  0.01370614113484869 0.0138804542047638 0  0.04930041102671841 0.01842260568883502 0  0.07875000000000001 0.02 0  0.0745395359848485 0.01165101111925709 0  0.03860755698543604 0.01373741558556884 0  0.02605038706571737 0.01573944002207753 0  0.07559826163500957 0.01841729376139847 0  0.04437500000000001 0.01149157931286774 0  0.06874116707361365 0.01454618473032123 0  0.003761917372881356 0.0239307468220339 0  0.003984374999999999 0.01125 0  0.003768503289473684 0.01392539576480263 0  0.001796875 0.0111328125 0  0.003761917372881356 0.008930746822033899 0  0.005 0.00625 0  0.003761917372881355 0.0210692531779661 0  0.06633928571428571 0.01410714285714285 0  0.006484375 0.01125 0  0.08364120589325512 0.01657288979763549 0  0.03576267476503373 0.0184116442851204 0  0.07370875846579374 0.0137848203678562 0  0.06964285714285715 0.01758928571428571 0  0.05520833333333334 0.01833333333333333 0  0.06491071428571429 0.01839285714285714 0  0.0510098951944636 0.01559941474766356 0  0.01786087179886325 0.0115702210443714 0  0.01972197383235524 0.01160576093166696 0  0.01804697593127788 0.01433503795474974 0  0.001644074528704677 0.01642892723865279 0  0.00125 0.03 0  0.001497685185185185 0.001267746913580247 0  0.07315451164202422 0.01643443118912983 0  0.001233906745910645 0.0140625 0  0.01162635071030191 0.01362229857939618 0  0.01528023503083844 0.01845923557506155 0  0.06625 0.02 0  0.07695012019230771 0.01624387078484555 0  0.03139091092855769 0.01320776147621796 0  0.03857339107781042 0.01675295051810485 0  0.001754993120977522 0.02590789105493891 0  0.002288757784711197 0.00412546923654445 0  0.07914382119690884 0.01404430049871201 0  0.001391810103286306 0.01257390899021902 0  0.0419501201923077 0.01614675005432421 0  0.001484375 0.007018229166666667 0  0.001484375 0.02201822916666666 0  0.048
[...]
<PointData  Scalars="concentration"> 
<DataArray  type="Float64"  Name="concentration"  format="ascii">6.4641330879034653e-01  1.0000478169905278e+00  9.9999999999999845e-01  9.9999999999999933e-01  4.5438388140730273e-24  4.3745446812181271e-24  1.6027385298760346e-04  4.2566222198350673e-01  5.9811982583357104e-01  2.8311281372230748e-06  1.0000020572713624e+00  7.9759780696900073e-01  2.7074980532467929e-01  1.2351662916322956e-01  9.2407182943406596e-01  7.0785846773977446e-01  3.6169240150900495e-01  8.5578651834366282e-01  2.0227296040925649e-01  6.7492875896535387e-01  3.9712526550467031e-01  9.8623357051873495e-01  3.2901085380989237e-02  3.2200536259420293e-01  7.4794281065451584e-01  3.8102452086497407e-01  6.9189290960838912e-01  2.9789886484073969e-01  1.6324609474864327e-01  8.8956297579845878e-01  2.4023421872252293e-01  4.3573839333148527e-03  9.5709896692153540e-01  5.3725504946518465e-01  5.3629456040847256e-01  7.7173936500148577e-01  5.3626347990315015e-01  8.2586867592151858e-01  5.4033776410179868e-01  5.3711162455392170e-01  8.0452610928721649e-02  9.9987730182423329e-01  5.4520884354088883e-01  5.7056902749453930e-01  4.1107102523231487e-01  6.6097825388805154e-01  4.7037038765909606e-01  5.3865303037925527e-01  5.3647368427883646e-01  -1.2477722564619096e-06  6.0735927026827574e-01  5.5169290470781640e-01  5.3626736832642452e-01  9.9999995355789739e-01  3.4441748077004303e-01  7.2708623986094778e-01  6.8053563660795324e-01  4.7795342021387394e-01  6.0010984878629448e-01  8.6453124490373068e-01  6.2128768103161502e-01  2.9484098207181744e-08  9.9974533917278552e-01  2.9603290765065002e-03  1.0000000181494935e+00  4.7993424852890959e-01  3.7302897869221369e-01  4.0422229783214143e-02  6.7134736947633211e-01  3.8686234675454179e-01  4.0193482658290874e-01  6.1150680854996509e-01  4.4584997622396411e-01  5.5566243956179907e-02  2.3753013998984085e-01  7.8528355081167911e-01  6.8337893316537701e-01  1.7641521259707377e-02  9.9999999999999889e-01  1.1821920637870460e-24  1.0033839719855291e+00  2.4929319417517204e-01  6.6879848196847891e-01  8.7295645627183316e-01  7.1749548222256487e-01  8.4080071708136273e-01  7.3744141752403058e-01  9.0935546670138045e-01  7.5921580009266132e-01  1.4614197073870539e-02  3.7473851369753303e-01  2.2337926322600829e-01  9.4300855978307518e-01  7.6679465819003301e-01  4.5916274541780944e-01  3.8844181532713107e-01  6.1299224309072797e-01  6.8273738456862876e-01  7.0001744322254889e-01  1.0265282808925866e-01  2.3788518534923406e-01  8.1258091830131540e-01  2.5386958080981498e-01  4.0208858287008298e-01  6.6853321214408490e-01  3.8833761893683605e-01  4.3567247336619797e-01  3.9911304594851993e-01  9.9999831077020318e-01  1.0000000060328180e+00  9.5075973736502384e-01  8.7669415358019531e-01  2.7979385196221884e-01  2.9902990807626401e-01  8.8322366469013961e-05  6.9764066126246971e-01  6.4800998544666966e-01  -5.8958589697059031e-08  -3.9690378117701370e-07  2.3099791984145332e-01  9.9999802883683064e-01  3.1425322875456435e-01  3.1075139571117266e-01  4.4112961056343541e-01  8.2937286637488339e-01  6.2553952229308740e-01  3.7161150602106940e-01  6.5974713671419938e-01  9.9653465804061414e-01  7.3895018317782113e-01  6.8224076762718389e-01  1.0000080548387309e+00  -1.2092811332506553e-06  1.0000000208348605e+00  -2.8762733642365827e-08  2.8518565936793255e-01  9.7314119665238363e-01  1.8753206893374064e-01  2.6490481523664572e-01  7.4187940832984700e-01  4.5521504696837167e-01  4.1727793744440189e-01  1.8128545722216680e-01  6.9894709686487322e-01  9.9468804237668862e-01  8.2147450394163624e-01  7.6388040362503762e-01  6.1686266947558666e-01  1.4656672499058873e-01  5.9494555709433172e-01  -5.4946708276983774e-04  9.9990950313641935e-01  4.0915586697320833e-01  1.2354908385580837e-01  5.3659067062610755e-01  3.9592977629728265e-01  3.3265950496497976e-01  7.1865416535094473e-01  3.5365048749695949e-01  6.5491704073938162e-01  3.3292468695515992e-01  8.5411800738125865e-01  4.2450425277334947e-01  2.3359614694689226e-03  4.9125449755949491e-01  7.9661638202703622e-01  4.4836068219608211e-01  5.4770322226615409e-01  5.2782189046387473e-01  3.3228817595046656e-01  9.2780739164203918e-01  7.3936968924795399e-01  3.9149170867601712e-01  6.5727291624127726e-01  2.8138500016655554e-01  6.4354637651729019e-01  7.3296552762034384e-01  2.1607854745328786e-01  3.9131546038817250e-01  4.1276371998182493e-01  8.5717735685675145e-02  6.7497110767484325e-01  5.8225132015532410e-01  5.7097083948718086e-01  5.3361713960882462e-01  7.1143898265090511e-01  7.6621699874127558e-01  9.9499307682139804e-01  7.1681629705263961e-01  4.7997521966713347e-01  5.7833262516389949e-01  5.3377045516888710e-01  9.6587931525207937e-01  9.6896814401596781e-02  5.2047931013063542e-01  6.0256049814838131e-01  4.6211310761068025e-01  9.3674990651701706e-01  3.0441029281923132e-01  4.2593216625774449e-01  4.3589387622733688e-01  5.4067357491087586e-01  1.9864171884360560e-01  8.0017495267138961e-01  2.6927587081619825e-02  3.0635194322375443e-02  5.3839856566850142e-01  8.7469540594502282e-01  9.9998970332114678e-01  6.3830504378850095e-01  8.4107601185287963e-06  1.1580867988918776e-08  1.4460274254478277e-08  2.0793220710025714e-05  1.0000299872870921e+00  9.9999963650821144e-01  1.0000000102535378e+00  6.9923201796105194e-01  4.3254702529931116e-01  9.7951578825683450e-01  3.2159879162295446e-01  2.6473742780430409e-01  7.9727079550684821e-01  9.0109185071816866e-01  6.4994380461572554e-01  3.3317774607888517e-01  2.5184108616033002e-01  5.3634051673478000e-01  5.3933810872221344e-01  1.3557058108569999e-07  1.0000002667778556e+00  7.7817236174215132e-01  3.7179938028663073e-01  4.6488946668756620e-01  4.5752005639235821e-01  7.1242593196522064e-01  2.1618685392278708e-01  -5.1038231188143103e-09  1.0000000036695482e+00  6.1168275521055815e-01  3.5900178430821184e-01  3.2819557927519932e-01  3.4939641570746049e-01  4.6182572217458628e-01  6.3948112349445996e-01  6.6090881230912024e-01  2.6280508969361482e-01  5.5011594554620247e-01  5.6815758958793172e-01  8.3425166680965057e-01  8.5297550652397691e-01  9.2486562106428827e-01  8.0382231066795473e-01  7.6776061217120506e-01  6.1737155558315260e-01  3.9694830170593787e-01  6.5860824639168747e-01  8.6541609956247612e-01  7.1391556548778978e-01  3.4944308006317865e-01  4.8322388263365779e-01  3.5088051266523984e-01  3.8814025631796334e-01  8.8528553963898138e-01  7.4107164703721876e-02  5.8563009378329456e-01  8.5096949804202959e-01  1.0018149729461607e+00  1.0002218993577559e+00  1.0002761897452641e+00  9.5802714127013977e-01  5.7131511124847967e-01  6.3653091431747055e-01  6.5088382403732981e-01  5.7853456277728954e-01  3.4484662844061864e-01  7.5211342019439142e-01  6.6500760294395900e-01  4.0994185031612057e-01  4.1550541579821343e-01  6.4330676229816952e-01  6.6027096007416530e-01  2.9045831002407096e-01  5.1282470478130893e-01  1.0000002212148376e+00  1.9832407489415713e-03  2.3096235161464049e-01  3.0060066413475109e-06  -3.3699616995641898e-05  1.8274404719720777e-06  9.9997386512631348e-01  4.8744574110137828e-01  -9.8391193791367453e-04  5.9183553867417482e-01  8.2328351252815968e-01  4.8008766194320518e-01  6.5451248705259102e-01  7.2555968360277234e-01  6.9145667164894853e-01  5.8318592928731816e-01  1.0208077567243383e-01  1.1851001441538228e-01  4.4692548201971111e-01  9.4302928171133182e-01  9.9999999999999989e-01  -9.8801538487896727e-09  6.0259213790640398e-01  2.7481215444731355e-01  2.7851551817491543e-01  9.6381808373031885e-01  7.0449714373660155e-01  5.9050116560795896e-01  3.4002402821455391e-01  7.0387520317101804e-01  1.0000000281904160e+00  6.4380117539906502e-08  4.9660231024904145e-01  1.1814251943047593e-02  6.4370139204127519e-01  2.2442455670387012e-06  9.9999532189374496e-01  4.1735798640590621e-01  3.1802643422580712e-01  8.1033887683157668e-01  4.5923225174032134e-01  3.9011348452306560e-01  8.2188633484599249e-01  4.3798413536276348e-01  6.8661274632993041e-01  4.3313379505209765e-01  4.5944329094958752e-01  2.7649461653156310e-01  6.8267815148676692e-01  3.7017779659642075e-01  2.9138868817764801e-01  1.6867417440820617e-01  1.1136451057822198e-01  1.3014980878787022e-01  1.4554201975277570e-01  4.3723614763613022e-01  4.8610662149901002e-01  4.1466693052216902e-01  1.0000011295014299e+00  1.8022295578043692e-06  -6.4010668080244838e-06  1.9471119685437979e-01  9.9999999163630071e-01  3.8821323975883409e-01  3.4551282567928782e-01  6.8068087154610735e-01  6.3166757036872434e-01  6.6142911169001462e-01  6.9335406407209854e-01  6.7505152960065673e-01  9.5743373261113929e-01  2.3509272360881414e-01  2.1523293946443425e-01  2.4424270171417492e-01  9.7841572415613842e-01  1.0001460197574450e+00  6.2655550117768988e-01  6.0567755990302330e-01  7.2550547212617478e-01  7.4179940617839824e-01  4.2600119638320938e-01  9.9763482702121387e-01  7.0637655943456457e-01  9.9642794881747943e-01  9.8290272067863926e-01  1.0019401491109718e+00  5.8694713525215392e-01  6.5377689426780328e-01  5.6415179438828333e-01  5.1442375967300102e-01  1.4398464411022158e-01  3.9324870041189264e-01  4.8609545437022483e-01  6.2388650924163669e-01  6.5705411603584041e-01  5.7849517491824443e-01  1.5599159014479341e-07  7.5504402756507605e-01  4.4849849546337728e-01  4.0753564357543026e-01  4.1933293204548383e-01  9.8069860620531690e-01  2.9202082036300497e-01  9.9802139683290958e-01  6.9696900519238369e-01  5.9882855942154678e-01  9.2757110584554281e-01  7.6848373893257391e-04  2.5811222911505697e-03  7.5628239433393063e-01  6.6356919935523256e-02  2.8362481131342693e-01  7.4272956095276377e-01  5.7348640434227538e-01  6.9512842674459197e-01  7.2207004305376432e-01  4.0031309115277725e-01  6.6768411552719797e-01  9.4229011322485984e-02  3.4291506248049897e-01  9.9999999777455351e-01  -1.8271018734430843e-08  1.0000000523462271e+00  3.9359395862126301e-01  4.1028418803652844e-01  4.4070938811131344e-01  -3.7684204685327057e-04  6.1548415509785204e-01  7.9600324101223385e-01  8.7499864045543774e-02  9.2861023949300370e-01  4.3221516475603217e-01  4.2203462934792724e-01  7.0844029393360886e-01  7.1780217837772398e-01  6.7914979586081936e-01  2.3172219950433995e-01  6.8659898952521559e-01  3.3052584241173472e-01  2.1469993133081672e-01  1.9675200548543559e-01  2.3978897003221841e-01  6.4268537259741032e-01  4.5647006243368837e-01  1.6340142128366800e-01  2.7213702348842828e-01  8.3077384858690650e-01  6.6461319925728390e-01  7.2595969773012614e-01  3.9837928146262624e-01  3.3672977682155728e-02  6.9831952389665564e-01  7.8458250890017811e-01  8.8933456242414288e-01  7.4809737242239016e-01  7.8206488335636426e-01  3.7331982593547591e-01  4.6720988702713689e-01  4.2765324016089012e-01  1.2949460496138974e-05  6.3075652534191107e-01  1.7506910173276163e-01  8.4148843760560443e-01  9.2278263384702608e-01  6.8684764461938552e-01  6.7128586370828414e-01  7.7761979276101489e-01  9.1679658413393705e-01  3.8308063418798477e-01  8.6412914958545084e-01  6.0999172666192281e-01  3.6795597976961680e-01  3.5918198530895890e-01  3.1595533270224069e-01  6.5759995643454250e-01  9.3264609952467692e-01  3.0146749386558547e-01  2.4595286892868315e-01  8.3326632862346994e-01  4.1430804154844630e-01  4.0070844887457246e-01  3.7716803736416171e-01  7.6563972866330654e-01  8.2195101382139713e-01  9.9999954998093665e-01  5.8010321687382771e-01  3.4368644294825529e-01  3.6303009793950886e-01  9.9212790962885589e-01  7.1899082577654601e-03  1.0007910991948341e+00  4.3967517374369693e-02  -2.2483489876005237e-05  2.4839416134865483e-02  -1.3208118070664614e-23  2.2580894580971637e-07  1.5325846949919109e-08  1.0000000000000016e+00  -9.7112454653680439e-24  -2.8282414607678615e-05  9.9973242722599198e-01  9.9992000896204725e-01  4.9194035360637339e-01  9.4966134033987415e-01  4.6311825017364311e-01  9.9999995083956961e-01  8.9808169993632980e-01  1.5801720971590430e-01  9.6491350374972595e-01  1.7666056359255547e-01  9.9999997425340525e-01  6.4019091689701213e-01  8.8394019283909941e-01  7.4205428099460879e-01  5.3636358178814370e-01  4.5852037036030474e-01  3.9110279156304700e-01  3.5485063891307855e-01  3.3725817813893477e-01  3.9812638871132178e-01  3.4707538211247785e-01  7.9281111478044952e-01  2.7743405288641804e-01  7.3460285836009664e-01  6.5015309136609656e-01  3.3159812249341997e-01  6.1631828406293476e-01  7.7235992457806413e-01  7.3019414639993518e-01  4.7287111415579480e-01  1.4073130397425782e-01  1.3640658934823147e-01  4.0546575685094832e-01  5.0617511403101867e-01  6.7127051123461956e-01  4.6024359899185879e-01  3.4396506052980885e-01  4.3606014101972640e-01  5.5182083215834266e-01  9.9984969999529749e-01  7.0121743365088673e-01  8.6210272989590286e-01  7.7011305944448250e-01  6.6031413159275587e-01  -6.3426721810086432e-06  6.6529014482359705e-01  -6.3786691893231188e-08  9.9989243626737423e-01  8.0413641230466326e-01  5.5100638922809897e-01  4.7885528980682052e-01  3.3162956149012829e-01  4.0999023069712465e-01  4.8942435449798860e-01  9.2212804346146093e-01  6.8578787568819644e-01  6.4668188612849442e-01  9.9999981138800742e-01  1.6681910013339016e-01  4.3735707587133688e-01  5.0269730473698993e-01  4.6313575440012283e-01  -2.1709748042497423e-05  2.0521707289139723e-02  -9.5410355025983915e-03  7.0957324082836881e-01  6.1106888984140906e-01  4.9915108337368091e-01  7.8462318090721028e-01  6.3429243877820407e-01  6.7646500023627376e-01  6.8889467244718527e-01  1.1064757283824164e-01  6.4681994642633733e-01  9.6143640243310102e-01  3.9431606481477383e-01  2.9469356964539267e-01  8.3327577183945345e-01  4.7120106164482728e-01  4.5693277674107247e-01  7.3346831983844829e-01  8.3059135265999617e-01  1.0576812575156513e-01  5.9348851704052841e-01  6.2460286032821455e-01  5.2156483356152417e-01  6.9551673309181028e-01  3.6377099846424671e-01  4.3653216451169091e-01  9.9999998671537171e-01  5.5826820000427746e-01  6.4669336314098569e-01  3.2925869488942727e-01  5.4695335946760926e-01  2.1047104621321294e-01  -3.9447317366184336e-07  3.5789107595113123e-01  3.3685933974460541e-01  1.6063524242107452e-01  8.5828981163035190e-01  9.6910220159819482e-01  6.3933515485636216e-01  8.0446127097972819e-01  5.0805616531880005e-01  2.8196209592273813e-01  5.0488120524993763e-01  1.7276520929143639e-08  2.3532836407302732e-01  6.7669983902828290e-01  3.3690463669841142e-01  4.6939291866826072e-01  7.3025786745794730e-01  2.0205816090202625e-01  -5.2338019399162500e-04  5.7994729555931424e-01  5.2211878634596898e-01  7.6387622524768317e-01  5.8927749400198892e-01  3.9277156123047746e-01  3.8728031428631798e-01  2.4230333472107854e-01  5.5716277678602111e-01  5.2947157384293730e-01  9.2996562910928005e-01  -2.3362274699796201e-06  -2.2890184234936144e-05  1.0000032892747792e+00  3.5141035043492708e-01  7.0197300284333441e-01  9.9219497301705373e-01  9.9876865391236203e-01  1.0012249611069353e+00  9.6764554231114197e-01  5.9863730031008033e-01  4.8920210391687285e-01  6.0844854185318886e-01  3.6066636271645874e-01  4.5820573645667656e-01  2.6577476013441004e-01  5.2890371575639128e-01  7.5781858975058569e-01  7.7471959065908347e-01  8.1617818106831042e-01  1.6441570493854885e-09  9.0515621087598486e-01  9.9999999533899264e-01  5.3661750724240531e-01  5.0927633102308634e-01  8.2778520458780858e-01  4.3573529777116315e-01  4.0934865055600766e-01  9.5625192133856518e-01  1.0000220118076379e+00  -1.5927171519178379e-03  8.6196396746751991e-01  -3.3957299748704769e-07  2.4666077785660354e-01  1.7904914514338433e-01  1.0000176647864423e+00  1.0000273496049590e+00  1.9782873816070952e-05  7.5092432603435566e-01  7.8791827647720791e-01  9.0292776340950665e-01  4.6730598710980892e-01  6.3104241782394843e-01  1.0000032424382246e+00  -4.3837124381304763e-05  2.2448836902989050e-01  4.9421833540688968e-03  9.9893540797904312e-01  9.9921819712304472e-01  4.1200979632205403e-01  4.6197352620688081e-01  6.3611550967756680e-01  4.4851400405975650e-01  4.1474473555365482e-01  4.1799435517186356e-01  5.2660747819143594e-01  4.4717578245906736e-01  6.0352004407959126e-01  3.0514884626386335e-01  4.1498384028156926e-01  3.7776578844127578e-01  8.4840298168697770e-01  5.9585502331426854e-01  7.4908907325754481e-01  5.8897778862963335e-01  4.9083625123786506e-01  4.0442818802311276e-01  4.0193874574257638e-01  4.2542269283857015e-01  4.3774138227678833e-01  5.5843014272281312e-02  1.1763295780926730e-01  4.5482381606172198e-02  7.7332691797600550e-01  7.0636236619882919e-01  6.5681670881632215e-01  6.3441373745782725e-01  8.1519481985820330e-01  6.9333226442516560e-01  5.8956827222211106e-01  7.3624396855563146e-01  6.6817471716624299e-01  6.4274399596603649e-01  5.6140524360305244e-01  9.4661223489851720e-01  8.8421066205559518e-01  5.0945427983871439e-01  7.1820886416103236e-01  6.1851238834887434e-01  5.5410241159733420e-01  6.5128662005996518e-01  6.9689395072710436e-01  6.2797140505554050e-01  6.8541786448685005e-01  6.7965417649063753e-01  5.4472760399728659e-01  7.2055318971097193e-01  5.3799539546751274e-01  5.5977167722471277e-01  3.3959389862946099e-01  7.4213248919536190e-01  5.8081041640083075e-01  -4.9304904954541431e-09  5.9141370444176178e-01  6.2788227733182034e-01  1.0290572660489643e-02  4.6625828040730644e-01  9.3924372251341370e-01  8.8095226213779887e-01  7.9511360313228374e-01  3.5876383105185081e-02  4.8651425200417472e-02  6.4547043062809528e-01  3.8108296777322925e-01  8.3414891363225463e-01  8.5555000399110526e-01  1.8865660132523659e-01  4.3229771641504411e-01  4.2146406554156685e-01  4.4118946918082347e-01  3.1597611357857580e-01  9.8591986313174917e-01  5.2403381373846891e-01  4.5472809484629484e-01  6.3539346726213197e-01  5.8229829086937424e-01  4.3112368917015337e-01  4.5002971266650321e-01  2.4896887109781657e-01  2.8968743077710646e-01  4.2705971075181831e-01  2.4028996840524294e-01  1.5918534992212255e-01  2.2440224675345333e-01  1.0000000509332942e+00  2.7026147275579595e-03  3.2870426029635702e-01  3.3458881049314487e-01  4.3966386493866655e-01  1.6598225399393945e-01  6.4738799661727464e-01  4.6231692062972074e-01  6.4697678710146511e-01  -1.3336841991353478e-08  8.9632738153899674e-02  4.6883997366744568e-01  5.8227017084478383e-01  -6.5439864834014186e-07  7.5948284044277203e-01  7.9658946174798140e-01  7.1416623500281562e-01  1.1339583531447184e-01  1.7095439211354365e-02  9.9999729205188981e-01  4.9884481649180706e-01  9.4728623409532409e-01  8.9002502920909365e-01  7.6913436386700207e-01  5.4996470101953554e-01  7.0261762943992445e-01  5.9478447662046596e-01  8.4557966812743884e-02  9.9999626460656565e-01  1.0000004292353715e+00  2.8504172602187027e-04  5.1790638376919218e-01  8.8009114614312783e-08  6.4986983781041283e-07  2.3402448662894343e-02  3.0780077683236517e-01  1.0000000076326512e+00  9.9663041476232395e-01  9.9999996257678370e-01  4.2161000848629149e-01  4.0744941345870039e-01  9.5120402926090020e-01  3.9374729109211787e-01  9.9999902987484135e-01  1.2516409525000449e-01  1.8428474799677633e-01  7.7334144457560827e-01  1.1411820343038569e-01  8.8049561856294511e-01  9.2424440551554798e-01  5.7489508859502125e-01  4.6569627344995990e-01  1.4134451067091808e-01  6.1914515605261577e-01  6.2059280282101281e-01  6.5091840290010872e-01  7.3616466109134371e-01  6.5769604440156404e-01  9.9999992929020542e-01  3.6988275198655612e-01  3.8512465393243656e-01  6.0129164028228754e-01  9.8326072400847842e-01  9.9122220690143281e-01  6.3003878166185756e-01  3.9740873804076138e-01  -4.6483417944626331e-07  3.0750929114331416e-01  6.2107003027409291e-01  3.4249221409722969e-01  3.1425964269149281e-01  3.4859932155195844e-01  5.3340405341529340e-01  4.1659379521259571e-01  2.8484518067509762e-01  2.5568936744396970e-01  2.9883478786796236e-01  6.5776121483295102e-01  1.6695090103419410e-01  8.9744445713438670e-01  3.0222749744535571e-01  8.8147242862385544e-01  8.5624379810546791e-01  8.2846626644233190e-01  1.0001529583267932e+00  1.0029559661951117e+00  2.078199951152911