<?xml version="1.0"?>
<VTKFile type="UnstructuredGrid"  version="0.1"  >
<UnstructuredGrid>
<Piece  NumberOfPoints="1079" NumberOfCells="1944">
<Points>
<DataArray  type="Float64"  NumberOfComponents="3"  format="ascii">0.08500000000000001 0.02 0  0.005 0.02 0  0.005 0.03 0  0 0.03 0  0 0 0  0.005 0 0  0.005 0.01 0  0.08500000000000001 0.01 0  0 0.015 0  0 0.0075 0  0 0.0225 0  0.04500000000000001 0.02 0  0.04500000000000001 0.01 0  0.025 0.01 0  0.025 0.02 0  0.065 0.02 0  0.065 0.01 0  0.035 0.02 0  0.035 0.01 0  0.07500000000000001 0.02 0  0.07500000000000001 0.01 0  0.015 0.02 0  0.015 0.01 0  0.05500000000000001 0.01 0  0.05500000000000001 0.02 0  0.07000000000000001 0.01 0  0.07000000000000001 0.02 0  0.05 0.01 0  0.03 0.01 0  0.03 0.02 0  0.04000000000000001 0.01 0  0.01 0.01 0  0.02 0.02 0  0.06 0.015 0  0.08500000000000001 0.015 0  0.05 0.02 0  0.07250000000000001 0.015 0  0.04000000000000001 0.02 0  0.03750000000000001 0.015 0  0.0525 0.015 0  0.02 0.01 0  0.01 0.02 0  0.0275 0.015 0  0.0125 0.015 0  0.08000000000000002 0.01 0  0.08000000000000002 0.02 0  0.0325 0.014375 0  0.04291666666666667 0.015 0  0.065 0.015 0  0.005 0.005 0  0.005 0.015 0  0.02208333333333334 0.015 0  0.07791666666666668 0.015 0  0.005 0.025 0  0.06 0.01 0  0.06 0.02 0  0.01729166666666667 0.01572916666666667 0  0.04770833333333334 0.01427083333333334 0  0.06875000000000001 0.01625 0  0.008750000000000001 0.01625 0  0.05625000000000001 0.01625 0  0 0.00375 0  0 0.01875 0  0 0.01125 0  0 0.02625 0  0.08145833333333334 0.01354166666666667 0  0.0675 0.01 0  0.0075 0.0125 0  0.0625 0.0175 0  0.0575 0.0125 0  0.0625 0.0125 0  0.08207465277777778 0.01707465277777778 0  0.06767857142857144 0.01321428571428571 0  0.0175 0.01 0  0.01875 0.01291382575757576 0  0.0475 0.02 0  0.04564168086314595 0.01679860519591141 0  0.00296875 0.0125 0  0.0025 0.03 0  0.0025 0 0  0.00296875 0.0175 0  0.01521990740740741 0.0132349537037037 0  0.0497800925925926 0.0167650462962963 0  0.0325 0.02 0  0.03474264705882353 0.01674632352941176 0  0.03750000000000001 0.02 0  0.03025735294117647 0.01674632352941176 0  0.0275 0.02 0  0.0525 0.02 0  0.0125 0.01 0  0.04020833333333334 0.01322916666666667 0  0.03750000000000001 0.01 0  0.0225 0.02 0  0.02479166666666667 0.01677083333333333 0  0.07520833333333335 0.01322916666666667 0  0.07250000000000001 0.01 0  0.07520833333333335 0.01677083333333334 0  0.07250000000000001 0.02 0  0.04020833333333334 0.01677083333333333 0  0.0225 0.01 0  0.02375 0.01262152777777778 0  0.04250000000000001 0.02 0  0.04250000000000001 0.01 0  0.07750000000000001 0.01 0  0.07750000000000001 0.02 0  0.05036151960784314 0.01294424019607843 0  0.0705560064935065 0.01284699675324675 0  0.05458333333333334 0.01291666666666666 0  0.0021875 0.024375 0  0.005 0.0275 0  0.01125 0.0175 0  0.01463848039215686 0.01705575980392157 0  0.01 0.01375 0  0.03625 0.0125 0  0.0021875 0.009375 0  0.05375000000000001 0.0175 0  0.07125000000000001 0.0175 0  0.005 0.0025 0  0.0021875 0.005625 0  0.02655220103578155 0.01234889948210923 0  0.002187499999999999 0.020625 0  0.02979166666666667 0.01302083333333333 0  0.0525 0.01 0  0.07895833333333334 0.0125 0  0.01994277885235332 0.01704213007736944 0  0.07934656179076068 0.01733823814273861 0  0.04505722114764669 0.01295786992263056 0  0.06625 0.0175 0  0.006250000000000001 0.0175 0  0.05750000000000001 0.02 0  0.05875000000000001 0.0175 0  0.005 0.0225 0  0.005 0.0075 0  0.002375 0.027375 0  0.002375 0.002625000000000001 0  0.0475 0.01 0  0.0175 0.02 0  0.0325 0.01 0  0.03375 0.0121875 0  0.04261299435028249 0.01749205508474576 0  0.08500000000000001 0.0125 0  0.08250000000000002 0.01 0  0.02121963399965531 0.01224824108143494 0  0.0675 0.02 0  0.0125 0.02 0  0.02720152243589744 0.0175 0  0.03715165441176471 0.0175 0  0.08500000000000001 0.0175 0  0.0275 0.01 0  0.0025 0.0149560546875 0  0.0075 0.01 0  0.0075 0.02 0  0.06526785714285716 0.0125 0  0.01281031447005516 0.0125 0  0.0625 0.015 0  0.06 0.0125 0  0.05750000000000001 0.01 0  0.0625 0.02 0  0.0625 0.01 0  0.08250000000000002 0.02 0  0.04260103740101855 0.01252623201412851 0  0.02240052247582197 0.01750164767101344 0  0.07293583459427785 0.01238479732953041 0  0.005234374999999999 0.012265625 0  0.03528131980640358 0.01454684009679821 0  0.0325 0.01760027210036557 0  0.02532593822924343 0.01428227733767297 0  0.08009952069819683 0.01527145502895417 0  0.01987282359856536 0.01482587683689801 0  0.04828232595121382 0.01210233572595705 0  0.01671767404878618 0.01789766427404295 0  0.05125 0.01829007549029352 0  0.05247215456215357 0.01288882122882024 0  0.07338729919678716 0.01799385040160642 0  0.03838729919678716 0.01200614959839357 0  0.07717482110586968 0.01780301674207099 0  0.04771860040890012 0.01773306039388322 0  0.03125 0.01160380747126437 0  0.06875000000000001 0.01154265873015873 0  0.07625000000000001 0.01154065860215054 0  0.01625 0.01153997817696946 0  0.068125 0.018125 0  0.05437500000000001 0.015625 0  0.066875 0.015625 0  0.07039794950204951 0.01494384850614853 0  0.05687500000000001 0.018125 0  0.006875 0.015625 0  0.008749999999999999 0.01833333333333333 0  0.010625 0.015625 0  0.05625 0.01416666666666667 0  0.05812500000000001 0.015625 0  0.0449088595298192 0.01494528408816316 0  0 0.016875 0  0 0.013125 0  0.04962452342047931 0.01478673066448802 0  0.0153754765795207 0.01521326933551198 0  0.0771774565913315 0.01322498191305479 0  0.01857756431135545 0.01840228599899994 0  0.04642243568864456 0.01159771400100006 0  0.08125000000000002 0.01155637254901961 0  0.08317650804863432 0.0118234919513657 0  0.08288217288011697 0.01511353252923977 0  0.02837253504384828 0.0117177464035174 0  0.03896057962520807 0.01831163685754031 0  0.01125 0.0114244162490927 0  0.00935910490099115 0.0119067901980177 0  0.02946078431372549 0.01495404411764706 0  0.02875 0.0185829434466942 0  0.002968749999999999 0.0225 0  0.064375 0.016875 0  0.00296875 0.0075 0  0 0.001875 0  0 0.005625 0  0 0.009375 0  0 0.020625 0  0 0.024375 0  0 0.028125 0  0.06062500000000001 0.01812500000000001 0  0.008303571428571429 0.01446428571428572 0  0.01375 0.01865917058160413 0  0.05137790313978056 0.01143372888932909 0  0.04125000000000001 0.01131513063942604 0  0.04101690263896279 0.01844430285842771 0  0.02399563533148224 0.01844349395710867 0  0.08125000000000002 0.01868815426145731 0  0.05354684380692146 0.01145463537600848 0  0.01699195823639423 0.01315138909884649 0  0.07598357371794873 0.015 0  0.04098357371794872 0.015 0  0.003744047619047619 0.00375 0  0.003344630281690141 0.02580853873239437 0  0.04625 0.0187354532243972 0  0.06388392857142858 0.01138392857142858 0  0.06375 0.01375 0  0.05875 0.01375 0  0.06375 0.02 0  0.00622802734375 0.01372802734375 0  0.003630681818181818 0.001369318181818182 0  0.003630681818181818 0.02863068181818182 0  0.06125 0.01625 0  0.06125 0.01125 0  0.05625000000000001 0.01 0  0.05875 0.01125 0  0.06125 0.01375 0  0.08337864763241221 0.0183786476324122 0  0.05213634138653413 0.01674432930673294 0  0.04375000000000001 0.01 0  0.07424178685897437 0.01529258578431373 0  0.03924178685897436 0.01529258578431372 0  0.03410139294454583 0.01843406022904556 0  0.03089860705545417 0.01843406022904556 0  0.02094160484316717 0.01850229584291991 0  0.04375000000000001 0.02 0  0.04437042160883325 0.01820701498672512 0  0.04816311705429156 0.01600061344661149 0  0.07151224904251052 0.0114127410511319 0  0.04395528506193162 0.01639387970349481 0  0.0128750358694518 0.0167500179347259 0  0.02855808448399799 0.01642839899839741 0  0.02812690373330794 0.01340955081400569 0  0.08358500641945087 0.01351822349116885 0  0.05590277777777778 0.01173611111111111 0  0.06683110430364615 0.01164926404662283 0  0.02573206694914602 0.01842532451809762 0  0.01438126661842046 0.01166701193099454 0  0.02384283211216029 0.01526549696571563 0  0.03625 0.02 0  0.004609375000000001 0.0182421875 0  0.003398437500000001 0.01943359375 0  0.001728307845744682 0.01894718251329787 0  0.004377805359085963 0.01656966216675735 0  0.04649673309852075 0.0153889662370871 0  0.03615513600614297 0.01592654988586041 0  0.03316985071935832 0.01598763605018279 0  0.03110111603888768 0.01529816275177977 0  0.01370614113484869 0.0138804542047638 0  0.04930041102671841 0.01842260568883502 0  0.07875000000000001 0.02 0  0.0745395359848485 0.01165101111925709 0  0.03860755698543604 0.01373741558556884 0  0.02605038706571737 0.01573944002207753 0  0.07559826163500957 0.01841729376139847 0  0.04437500000000001 0.01149157931286774 0  0.06874116707361365 0.01454618473032123 0  0.003761917372881356 0.0239307468220339 0  0.003984374999999999 0.01125 0  0.003768503289473684 0.01392539576480263 0  0.001796875 0.0111328125 0  0.003761917372881356 0.008930746822033899 0  0.005 0.00625 0  0.003761917372881355 0.0210692531779661 0  0.06633928571428571 0.01410714285714285 0  0.006484375 0.01125 0  0.08364120589325512 0.01657288979763549 0  0.03576267476503373 0.0184116442851204 0  0.07370875846579374 0.0137848203678562 0  0.06964285714285715 0.01758928571428571 0  0.05520833333333334 0.01833333333333333 0  0.06491071428571429 0.01839285714285714 0  0.0510098951944636 0.01559941474766356 0  0.01786087179886325 0.0115702210443714 0  0.01972197383235524 0.01160576093166696 0  0.01804697593127788 0.01433503795474974 0  0.001644074528704677 0.01642892723865279 0  0.00125 0.03 0  0.001497685185185185 0.001267746913580247 0  0.07315451164202422 0.01643443118912983 0  0.001233906745910645 0.0140625 0  0.01162635071030191 0.01362229857939618 0  0.01528023503083844 0.01845923557506155 0  0.06625 0.02 0  0.07695012019230771 0.01624387078484555 0  0.03139091092855769 0.01320776147621796 0  0.03857339107781042 0.01675295051810485 0  0.001754993120977522 0.02590789105493891 0  0.002288757784711197 0.00412546923654445 0  0.07914382119690884 0.01404430049871201 0  0.001391810103286306 0.01257390899021902 0  0.0419501201923077 0.01614675005432421 0  0.001484375 0.007018229166666667 0  0.001484375 0.02201822916666666 0  0.048
[...]
<PointData  Scalars="concentration"> 
<DataArray  type="Float64"  Name="concentration"  format="ascii">7.7713037394514994e-01  1.0002315869808553e+00  9.9999999999999845e-01  9.9999999999999978e-01  9.6935228033557907e-23  1.4405372623832063e-22  -1.2075329678083331e-03  2.9112395624726378e-01  6.2627805059867425e-01  -5.8375054993479054e-06  9.9998612913084128e-01  9.1866402601415864e-01  1.3157969234465119e-01  3.1440841320858927e-02  9.8668483832389786e-01  8.4458088247958507e-01  2.1396822175947350e-01  9.5471294889842040e-01  7.6749466428326613e-02  8.1198860950151786e-01  2.5414261496180462e-01  1.0004315794281700e+00  -1.7761762070196961e-03  1.7718318326546539e-01  8.8029392722001487e-01  2.3729929339327971e-01  8.3138689749834205e-01  1.5691831376642085e-01  5.0984053624576649e-02  9.7302220153827312e-01  1.0837320449056588e-01  -2.9275289193277402e-04  9.9649916021148743e-01  5.4244753882922037e-01  5.3760052986343065e-01  8.9957824223342597e-01  5.3822754596757105e-01  9.3765495206582194e-01  5.5126280473861011e-01  5.4279561342916804e-01  1.5199988730074930e-02  9.9884186731721181e-01  5.6014060422558731e-01  5.9313126759932233e-01  2.7031120131575637e-01  7.9659268658362403e-01  4.5315999430231463e-01  5.4708826531819943e-01  5.3958837581234220e-01  -5.0175225375356690e-05  6.5248008975684346e-01  5.7024311454849008e-01  5.3791758209200580e-01  1.0000010078043182e+00  2.0012058648256426e-01  8.6284890106151180e-01  7.3651381111609282e-01  4.5071059293118049e-01  6.5836990908986115e-01  9.4319802083104631e-01  6.8232685283952510e-01  -1.2264400302275375e-07  9.9999415528992985e-01  -4.1530684463604827e-04  1.0000008544035333e+00  4.1629485790545911e-01  2.2781271574815265e-01  -6.4287024674742517e-03  7.7550337178271467e-01  2.8177624757543623e-01  2.9666915388434117e-01  6.9828765929806769e-01  3.6768056050331843e-01  4.4616771130924649e-03  1.6436896340240020e-01  9.1056783722867662e-01  7.6237139963047629e-01  6.0814317234169002e-03  9.9999999999999867e-01  4.5152801441807826e-23  9.9987058641443816e-01  1.7786095465872231e-01  7.4733705889235424e-01  9.6500715989634456e-01  7.9147933368446610e-01  9.4626433048042180e-01  8.1170463882625454e-01  9.8376470064311272e-01  8.8879143803624450e-01  -5.1376362693210224e-04  3.0400458239418154e-01  9.4649459827107124e-02  9.9375636641229592e-01  8.3955241445233664e-01  3.8154813300690521e-01  2.4249035227340138e-01  6.9086247315697380e-01  8.2036802866480574e-01  7.7766213007101581e-01  2.1369253780532685e-02  1.5595480493673605e-01  9.3082305549893607e-01  1.1585331717926269e-01  2.5708678901034338e-01  8.0666995645582840e-01  3.0261034731727099e-01  3.4252182466761305e-01  3.1010445809864184e-01  1.0000112143719899e+00  1.0000000740147068e+00  9.9259510323123701e-01  9.4335031001328173e-01  2.1490473358818235e-01  2.0419071538622874e-01  4.3356336820772330e-04  7.9960145419007067e-01  7.5227465622190326e-01  -1.4028633228123890e-06  7.9446214829893751e-07  1.4229205870356701e-01  9.9996601585308875e-01  2.4183168628543089e-01  1.6721736488799074e-01  3.3715213540978584e-01  9.0534608980212050e-01  7.2280634178607972e-01  2.8827634069159858e-01  7.6385098742145130e-01  9.9757477272041883e-01  8.7417681678831682e-01  7.8609027094494854e-01  9.9999945837557536e-01  -1.9863937940392456e-04  1.0000003119348362e+00  -7.6220334101141655e-07  1.4493534845766329e-01  9.9879025342532557e-01  6.8525109338356663e-02  1.6454031629611238e-01  8.3844140333164119e-01  3.5721508105624888e-01  2.7724548484391504e-01  9.6626958428375709e-02  8.3647066984703755e-01  1.0003248681547543e+00  9.0310824483691143e-01  8.5344817748482638e-01  7.1360835520336097e-01  4.3498412374307953e-02  6.2842128282106502e-01  1.2350162949060900e-03  1.0006163965889872e+00  3.0318933580789886e-01  5.3666407818948325e-02  5.3982019766304401e-01  2.9236281348628362e-01  1.8754624643689938e-01  8.5636482146748372e-01  2.0720556603424625e-01  7.9118827023118476e-01  2.3586215213644288e-01  9.2988327553561523e-01  3.1533621040079646e-01  -1.1323513346713202e-02  4.8151987750476277e-01  8.8422590126358458e-01  4.2751674682499163e-01  5.6168462382406670e-01  5.3694920322484407e-01  2.1698074337546955e-01  9.8122142783363386e-01  8.5658932932680332e-01  3.0255076803721709e-01  7.7441028998170180e-01  1.7363027000981518e-01  7.5557160559730885e-01  8.3734073916273311e-01  1.1065519168867725e-01  2.5971624273309762e-01  2.8335284283594347e-01  2.5481524444495772e-02  7.9469380804678491e-01  6.1685223604741923e-01  6.0351399762657798e-01  5.3349903861905601e-01  8.2859869790945251e-01  8.3402043835114259e-01  1.0010652980336805e+00  7.8013780932061294e-01  4.4532586809923219e-01  6.1251961779132535e-01  5.3943053291687493e-01  9.9524480228759904e-01  3.5029447532449923e-02  5.1699051947832664e-01  6.3751515946469672e-01  3.8416972698752816e-01  9.8345671441266125e-01  1.7885746385861895e-01  2.9959349598576740e-01  3.1689408166653577e-01  5.4711767937550349e-01  9.7749297930014939e-02  9.0352779127016902e-01  -1.0778305212161876e-04  1.2509161050101340e-03  5.5040927459843836e-01  9.5729206838272607e-01  1.0000244764478228e+00  7.2170088281559674e-01  6.5446093052240118e-05  4.0358148109206612e-07  2.0618257137636704e-06  -8.6887882691002346e-05  9.9997532877618234e-01  1.0000004577484445e+00  1.0000001118620068e+00  8.1874792129115948e-01  4.0395120066561502e-01  9.9930408407013027e-01  1.8963564939948002e-01  1.3761854258849596e-01  9.0628212138495534e-01  9.7040893150027874e-01  7.7762068121157890e-01  2.0129280590510151e-01  1.7944238229906781e-01  5.3834735893492591e-01  5.4896991718489208e-01  -1.8613049051389734e-07  9.9999944501627736e-01  8.9659155003538071e-01  2.3625044818428881e-01  4.0922166522631132e-01  4.0390726863832754e-01  8.4928419932484045e-01  1.3803372219727217e-01  -3.6172521061385599e-07  1.0000000405087346e+00  6.7124153873963255e-01  2.2192824114896825e-01  1.8310179053246525e-01  2.1221349913128626e-01  4.0740209489534152e-01  7.6023993450676486e-01  7.3990866335874694e-01  1.2523896899078765e-01  5.6561931627378204e-01  5.9141062908458997e-01  9.2949845359186245e-01  9.4064537818549421e-01  9.8151676825209133e-01  9.2254698201722662e-01  8.7694525620492048e-01  6.6744523821325519e-01  2.6379750637210270e-01  7.2486947930907630e-01  9.3570044158207066e-01  7.8145120088149433e-01  2.9126899961114039e-01  4.2102594414104144e-01  2.2407928958481288e-01  2.5975007177575726e-01  9.5893452445811111e-01  2.0254695185029720e-02  6.1349983976279809e-01  9.5521363876896226e-01  1.0000862271774076e+00  9.9987625005268388e-01  9.9988079545523600e-01  9.9142575957789081e-01  5.9677046869263950e-01  6.8627514829969227e-01  7.0435078845737387e-01  6.0520015904181879e-01  2.9164927161369075e-01  8.6950423696004209e-01  8.0188868920259526e-01  2.8180198508740439e-01  3.6716151445774736e-01  6.9102288943017098e-01  7.8507853206490619e-01  1.6480651946534719e-01  4.9401116977923837e-01  1.0000021680422413e+00  5.8269346874361885e-03  1.5470927728242478e-01  1.6041372817636537e-03  -5.4333474706439681e-04  9.2403244384637421e-05  1.0000505879985853e+00  4.4789739686145774e-01  -6.8270997557886648e-04  6.5807711181275597e-01  9.2232028202871652e-01  4.2595528474230276e-01  7.6130844178687040e-01  8.4660837655176835e-01  8.1688662531581291e-01  6.1625735322551256e-01  3.4543236591728518e-02  4.1378365295606193e-02  4.2920392039556099e-01  9.8313700225525991e-01  9.9999999999999922e-01  -3.5121090784917852e-07  6.6771179504032518e-01  1.9832399268490600e-01  2.1236427187713605e-01  9.9524852653620099e-01  8.4341701462447560e-01  6.4818297251398915e-01  2.7378859263215599e-01  7.7958170515337688e-01  1.0000006397398638e+00  3.5588326029981165e-07  4.5439345017624028e-01  -2.0632454388347599e-02  7.0134299811392176e-01  1.4021849684300687e-05  1.0000187884126497e+00  3.5230186247091938e-01  1.8887317925114311e-01  8.8831006458396533e-01  4.1658525265695889e-01  3.1325442978076989e-01  8.9896923174694554e-01  3.9346136480455551e-01  7.4597139319928074e-01  3.8847983964124477e-01  4.1435447305336409e-01  1.5939953625335213e-01  7.3928233753680284e-01  3.2355970084888153e-01  2.2461627865856237e-01  7.4825733138986744e-02  2.4565003369225520e-02  3.1228386813218555e-02  6.1708445465144417e-02  3.4884470405650575e-01  4.4041825758525777e-01  2.8342977666435182e-01  9.9999718286483041e-01  1.8745265155536119e-05  1.4071652320519579e-05  8.8983851790175164e-02  9.9999991915792341e-01  3.4418739891410965e-01  2.7282953021322826e-01  8.1166763793931296e-01  7.1548409016485970e-01  7.4546219031892835e-01  8.2514971541047410e-01  8.0531933084922613e-01  9.9870771709098227e-01  1.2116277686256098e-01  8.8381894149795442e-02  1.2619170147950423e-01  1.0030946345275411e+00  9.9917667525580167e-01  6.9510676743326572e-01  6.6560832665385949e-01  8.5424213026489526e-01  8.6447172489479263e-01  3.8611551416344947e-01  9.9988115535943245e-01  8.3775817853587564e-01  1.0015985375999532e+00  9.9949468932659824e-01  9.9876521333806967e-01  6.3618668673083489e-01  7.3678883563543007e-01  5.9692717609647195e-01  5.1527304868529789e-01  6.8504049887750218e-02  2.6011710559771123e-01  4.5657461108898278e-01  7.2206794573026745e-01  7.8798003832931662e-01  6.2552567466268094e-01  1.0682512144749048e-06  8.8716652650107386e-01  3.5010372240769355e-01  2.6639866397825018e-01  2.8865073144305620e-01  1.0003907861537480e+00  1.5033669738273769e-01  1.0002354980063826e+00  7.6290153993429333e-01  6.5738189041091166e-01  1.0009212639167337e+00  3.6882242758618064e-04  -1.0837757748889962e-03  8.2859418868476298e-01  6.3399173845883755e-03  2.0914815991355157e-01  8.7547545931523818e-01  6.0662627154095727e-01  8.3317093474884285e-01  8.5803595024257062e-01  3.6380087091900604e-01  7.4220979351135585e-01  2.6610786505346706e-02  2.6347485548078070e-01  9.9999993962613209e-01  -5.7072563837173993e-07  9.9999995696608535e-01  2.5041648502865987e-01  3.7995795884499961e-01  4.1283443023313920e-01  -1.2933276203412271e-03  6.4822869564599284e-01  9.1076238829185407e-01  1.3536371134294668e-02  9.9808226481918738e-01  3.0558049168821988e-01  2.8385313530019418e-01  8.3732675272731250e-01  8.4571899771551007e-01  8.1740735306657564e-01  9.9888876748832608e-02  8.1877276668861887e-01  2.5724777952836669e-01  1.0475237137609460e-01  7.6381381289279807e-02  1.6327948327555294e-01  6.8880353383357351e-01  4.0298483118345535e-01  6.3324181321118375e-02  1.4199606121734742e-01  9.3388776360657033e-01  7.2561895772168483e-01  7.9235181942408184e-01  2.6156300145785355e-01  3.9363895214702754e-04  7.6113555345606687e-01  8.6151911296407668e-01  9.6608264168013158e-01  8.3313073910156787e-01  8.5527904646282737e-01  2.3606071365820727e-01  4.1188394238347364e-01  3.3541989753149376e-01  1.4386461320103908e-04  6.9361708115359832e-01  8.8181258843600258e-02  9.1642926587096341e-01  9.8222278085857795e-01  8.2500128875401535e-01  8.0808358784150525e-01  9.0327166791546620e-01  9.8505440288521151e-01  2.3594661299581890e-01  9.6014667661799891e-01  6.6967481277829644e-01  2.2214291251742674e-01  2.1502200062304419e-01  1.7166425475215513e-01  7.9251569094479146e-01  9.8997007201703546e-01  1.5615190710129034e-01  1.1091100000847334e-01  9.4203300707638338e-01  2.7410313025743366e-01  2.5933775178411966e-01  2.3277129655738144e-01  8.9523213854237860e-01  9.3768232357263748e-01  9.9999996917509315e-01  6.3372044743988787e-01  2.0618792656290857e-01  2.2474783450103622e-01  1.0003442072960087e+00  -2.1815467295432009e-04  1.0001501914802489e+00  1.5784889930432536e-03  2.9976987941602857e-04  1.3731450366635284e-03  -3.9368713217077752e-22  6.2182564718167519e-06  2.0764103999182031e-06  1.0000000000000009e+00  -2.9380931735222592e-22  1.1650792288601969e-03  1.0012846786664571e+00  1.0000146702903583e+00  4.3918560405019391e-01  9.9431417637421082e-01  4.0810875347512765e-01  9.9999977448393784e-01  9.7674194193993080e-01  5.2709828987328892e-02  9.9828388863203166e-01  6.0957961520180501e-02  1.0000001550940374e+00  7.6429673307174384e-01  9.7255105597600044e-01  8.6808804187847333e-01  5.3979313202192214e-01  4.0214217515876144e-01  2.8571962582153854e-01  2.1744525051154168e-01  1.9006336624627765e-01  2.9233363761281683e-01  1.9862817271474248e-01  9.1657219051955374e-01  1.3701263537967992e-01  8.7249314258576915e-01  7.8422956123612941e-01  2.3658846383639162e-01  7.0192925198310274e-01  8.9497495019771867e-01  8.1966760344211886e-01  4.4451193474913292e-01  6.1797293584062087e-02  4.7970133258678646e-02  3.1800534295750743e-01  4.8220955746167343e-01  8.0352608007240178e-01  3.7217843427461994e-01  2.4828917652272808e-01  3.4123181989951079e-01  5.6630462278040072e-01  1.0000329162018202e+00  7.6424705265707060e-01  9.5335779719528746e-01  8.5622925353798429e-01  7.9049229520434117e-01  -7.5136577243647352e-05  7.9760201708145939e-01  -1.6750063120835876e-06  1.0000442058470318e+00  8.8670316412261574e-01  5.6560790908952407e-01  4.2802096025863307e-01  1.9426341735997887e-01  3.0800887748029326e-01  4.3845878924204279e-01  9.7954924200329774e-01  7.7576087654456627e-01  6.9507932298604336e-01  9.9999876772549579e-01  9.1006630661857102e-02  3.3925557252951477e-01  4.7061129660337714e-01  4.3660473060405164e-01  2.5277110614330585e-03  -1.3195621936480679e-03  -2.5735541110586166e-02  8.0670889411457991e-01  6.5093605916501718e-01  4.5683504098521133e-01  8.6945057258717029e-01  6.7898691337807182e-01  7.8705400226891320e-01  7.9063358729583033e-01  3.2036144221054899e-02  7.5661665244169196e-01  9.9698019370220559e-01  3.1734098888379453e-01  1.5696273854227924e-01  9.0791180120755455e-01  4.0987834699338649e-01  4.4086232006287057e-01  8.3564658549859150e-01  9.3753267691804898e-01  3.8250772475525080e-02  6.5764648722347374e-01  7.1620829573350553e-01  5.0617737196588342e-01  7.5493946113003219e-01  3.1633689668593212e-01  4.1736857251185505e-01  9.9999986162612342e-01  5.8019094913981750e-01  7.5184001601320039e-01  2.3873751314838251e-01  5.6156496945023282e-01  9.0899771285815070e-02  -2.7903911421905890e-06  2.9272855931970759e-01  2.1072610358622099e-01  6.4211633916283026e-02  9.4378951234414121e-01  9.9668683642467926e-01  7.5685052369027439e-01  9.1769416126347414e-01  4.8011290907972487e-01  1.4793767430722687e-01  5.0673306147906627e-01  6.4868820611426075e-07  1.0764776518706191e-01  8.1058228186222459e-01  2.7825993215158196e-01  3.9835291813523654e-01  8.4090598530827987e-01  1.2718362355818638e-01  -1.1229941227241095e-03  6.3165980826686641e-01  5.0642154242077653e-01  8.9034410910063955e-01  6.1914642760923000e-01  3.0146870519772040e-01  2.9795676840152752e-01  1.1401002168871430e-01  5.7872743386934977e-01  5.3833502013365198e-01  9.8225441125171609e-01  -2.9819050502020026e-05  -1.3228347510705721e-04  9.9998187704581776e-01  3.0343519556086679e-01  8.3629406911005677e-01  9.9907841594365543e-01  9.9957438065309401e-01  9.9949726043291853e-01  9.9821884232246283e-01  6.6137055069021733e-01  4.4245085114523375e-01  6.4801666030378358e-01  2.5976925769791021e-01  4.1334068266143037e-01  1.7072134631881189e-01  5.3427965839932134e-01  8.8514565925350885e-01  8.7454339699051586e-01  9.2630770968816001e-01  4.0837896170741899e-07  9.6552013067585440e-01  9.9999995521655050e-01  5.3907417415782344e-01  5.1005295072709034e-01  9.1147155002347335e-01  3.9865602245516896e-01  3.7087919877406755e-01  9.9508037395431248e-01  1.0000015780335214e+00  -4.6470334881051926e-03  9.5625262946001244e-01  -9.8201294560936390e-06  1.5143665608278645e-01  6.7057040230443996e-02  9.9998365105437415e-01  9.9995015781280194e-01  2.3682072185156049e-04  8.5800948226468454e-01  9.0634896656315023e-01  9.6341574154775023e-01  4.4985017777654673e-01  6.8426365623439878e-01  9.9999189154089940e-01  -2.6289180431954598e-04  1.0148992108010138e-01  -5.3235676293593849e-04  1.0001575393959925e+00  1.0002408135881624e+00  2.7519602920840991e-01  4.2175629836091688e-01  6.7915600869775572e-01  3.4779689868634600e-01  2.7657766429208869e-01  2.8066281383327418e-01  5.2876423231749037e-01  4.0554277324338650e-01  6.4472346553661242e-01  1.6535308739784638e-01  3.0747960421157983e-01  2.3573556162542575e-01  9.1611510365470061e-01  6.3580388414077882e-01  8.1864171364291172e-01  6.1781222332305374e-01  4.7007693436448045e-01  2.6510751713879999e-01  2.6318455364918308e-01  3.1176307142535747e-01  3.3504355807933905e-01  5.6012918312951729e-03  4.7762603902760589e-02  3.5794843420728947e-03  8.6871942603106167e-01  8.4015454473976181e-01  7.4705477157400790e-01  7.1356541602900525e-01  8.9100621704943084e-01  8.2813458504070125e-01  6.3511868622523338e-01  8.6794971740786664e-01  7.8038751915529014e-01  7.3722425575188333e-01  5.8178532984172615e-01  1.0034793646889948e+00  9.5045487408531804e-01  4.9314897089751381e-01  7.8201786372982796e-01  6.8986789053162756e-01  5.7151041779546685e-01  7.4712272216772346e-01  8.0785719888501528e-01  6.9639229365848454e-01  7.9335546237399868e-01  7.8776626882376444e-01  5.5461062180252174e-01  8.5322447441336369e-01  5.4116692499729624e-01  5.8904417220814009e-01  2.3259220262552857e-01  8.7294828048764317e-01  6.2964736816295930e-01  -1.0655556457466614e-07  6.2224299685202500e-01  6.7073829377868655e-01  -1.3266531849992125e-04  4.4962359866709817e-01  9.9058067086431434e-01  9.5107358175879908e-01  8.8817956459342740e-01  -2.5106043967266030e-03  5.6167432441971959e-03  7.6269904142521938e-01  2.3833419303127906e-01  9.1099476581828753e-01  9.3284944615370147e-01  7.3009717988404652e-02  3.1157058002456989e-01  2.8452499210214061e-01  3.2675560581502949e-01  2.0183999661783789e-01  9.9978521661782194e-01  5.2579891311585158e-01  4.2363626233999774e-01  6.8826951625569388e-01  6.3050195363140804e-01  3.9528213198857054e-01  4.1266004618565744e-01  1.1878920144224864e-01  1.5341728713583738e-01  2.9496984921514241e-01  1.4809495760554689e-01  5.5649478003269102e-02  1.3307198938079709e-01  9.9999908555405326e-01  3.7714657024473528e-03  1.8652665087628684e-01  1.9331830568423114e-01  3.3680561833270406e-01  9.0412313121476406e-02  6.9985735218214351e-01  4.4691974161665976e-01  7.6904364166479966e-01  -1.2972686164534461e-06  1.6829066875414272e-02  4.5617905420209609e-01  6.1402335949686038e-01  -7.9221711817281414e-06  8.6411572852459262e-01  9.1439377075117367e-01  8.0513686401787421e-01  4.1248250969544181e-02  6.4262645213824279e-05  9.9999991977397851e-01  4.9683199902681929e-01  9.9036352982058729e-01  9.7233017578821268e-01  8.8768066618890595e-01  5.6566782978827668e-01  8.0572174318692213e-01  6.6137620002547426e-01  2.0290900919436507e-02  1.0000018188743320e+00  1.0000008482477205e+00  3.2345339966810679e-04  5.0609075128727421e-01  5.4351752883184111e-07  8.0696570351140904e-06  1.1535335056548118e-02  2.5504320212688752e-01  1.0000003720873567e+00  9.9953504576919849e-01  1.0000007528273782e+00  3.9181081935536843e-01  2.8960602107792965e-01  9.9173316946067724e-01  2.5507220708415901e-01  1.0000008940766869e+00  5.2907291098369842e-02  1.0677624536623109e-01  8.7750533852403045e-01  2.9741667996651660e-02  9.5306320439008918e-01  9.8557902732524238e-01  6.1544102071186346e-01  3.8858904307569425e-01  6.4603644808858440e-02  7.1740746545093093e-01  7.1902010970705721e-01  7.8275097404365290e-01  8.2429397799071347e-01  7.1748173196956633e-01  9.9999963153708005e-01  3.0607735061701713e-01  3.4750458324922540e-01  6.3850637368640240e-01  9.9994547838881731e-01  1.0003372508273556e+00  7.2214725719071771e-01  2.5705491475011194e-01  1.0175486945247649e-06  2.3836430345534645e-01  6.6006756448834236e-01  2.4026577904774121e-01  1.7443337650667290e-01  2.3508114463078969e-01  5.3146466545462179e-01  3.3532285807286250e-01  1.6412992264815279e-01  1.2280688395718177e-01  1.6087509814567100e-01  7.9177817442909526e-01  5.8952725983881175e-02  9.6321749587603933e-01  2.4094820658688224e-01  9.6733784264795208e-01  9.5394772703228503e-01  9.2115723252361703e-01  9.9963663660268598e-01  9.9925110366610048e-01  -4.60