<?xml version="1.0"?>
<VTKFile type="UnstructuredGrid"  version="0.1"  >
<UnstructuredGrid>
<Piece  NumberOfPoints="1079" NumberOfCells="1944">
<Points>
<DataArray  type="Float64"  NumberOfComponents="3"  format="ascii">0.08500000000000001 0.02 0  0.005 0.02 0  0.005 0.03 0  0 0.03 0  0 0 0  0.005 0 0  0.005 0.01 0  0.08500000000000001 0.01 0  0 0.015 0  0 0.0075 0  0 0.0225 0  0.04500000000000001 0.02 0  0.04500000000000001 0.01 0  0.025 0.01 0  0.025 0.02 0  0.065 0.02 0  0.065 0.01 0  0.035 0.02 0  0.035 0.01 0  0.07500000000000001 0.02 0  0.07500000000000001 0.01 0  0.015 0.02 0  0.015 0.01 0  0.05500000000000001 0.01 0  0.05500000000000001 0.02 0  0.07000000000000001 0.01 0  0.07000000000000001 0.02 0  0.05 0.01 0  0.03 0.01 0  0.03 0.02 0  0.04000000000000001 0.01 0  0.01 0.01 0  0.02 0.02 0  0.06 0.015 0  0.08500000000000001 0.015 0  0.05 0.02 0  0.07250000000000001 0.015 0  0.04000000000000001 0.02 0  0.03750000000000001 0.015 0  0.0525 0.015 0  0.02 0.01 0  0.01 0.02 0  0.0275 0.015 0  0.0125 0.015 0  0.08000000000000002 0.01 0  0.08000000000000002 0.02 0  0.0325 0.014375 0  0.04291666666666667 0.015 0  0.065 0.015 0  0.005 0.005 0  0.005 0.015 0  0.02208333333333334 0.015 0  0.07791666666666668 0.015 0  0.005 0.025 0  0.06 0.01 0  0.06 0.02 0  0.01729166666666667 0.01572916666666667 0  0.04770833333333334 0.01427083333333334 0  0.06875000000000001 0.01625 0  0.008750000000000001 0.01625 0  0.05625000000000001 0.01625 0  0 0.00375 0  0 0.01875 0  0 0.01125 0  0 0.02625 0  0.08145833333333334 0.01354166666666667 0  0.0675 0.01 0  0.0075 0.0125 0  0.0625 0.0175 0  0.0575 0.0125 0  0.0625 0.0125 0  0.08207465277777778 0.01707465277777778 0  0.06767857142857144 0.01321428571428571 0  0.0175 0.01 0  0.01875 0.01291382575757576 0  0.0475 0.02 0  0.04564168086314595 0.01679860519591141 0  0.00296875 0.0125 0  0.0025 0.03 0  0.0025 0 0  0.00296875 0.0175 0  0.01521990740740741 0.0132349537037037 0  0.0497800925925926 0.0167650462962963 0  0.0325 0.02 0  0.03474264705882353 0.01674632352941176 0  0.03750000000000001 0.02 0  0.03025735294117647 0.01674632352941176 0  0.0275 0.02 0  0.0525 0.02 0  0.0125 0.01 0  0.04020833333333334 0.01322916666666667 0  0.03750000000000001 0.01 0  0.0225 0.02 0  0.02479166666666667 0.01677083333333333 0  0.07520833333333335 0.01322916666666667 0  0.07250000000000001 0.01 0  0.07520833333333335 0.01677083333333334 0  0.07250000000000001 0.02 0  0.04020833333333334 0.01677083333333333 0  0.0225 0.01 0  0.02375 0.01262152777777778 0  0.04250000000000001 0.02 0  0.04250000000000001 0.01 0  0.07750000000000001 0.01 0  0.07750000000000001 0.02 0  0.05036151960784314 0.01294424019607843 0  0.0705560064935065 0.01284699675324675 0  0.05458333333333334 0.01291666666666666 0  0.0021875 0.024375 0  0.005 0.0275 0  0.01125 0.0175 0  0.01463848039215686 0.01705575980392157 0  0.01 0.01375 0  0.03625 0.0125 0  0.0021875 0.009375 0  0.05375000000000001 0.0175 0  0.07125000000000001 0.0175 0  0.005 0.0025 0  0.0021875 0.005625 0  0.02655220103578155 0.01234889948210923 0  0.002187499999999999 0.020625 0  0.02979166666666667 0.01302083333333333 0  0.0525 0.01 0  0.07895833333333334 0.0125 0  0.01994277885235332 0.01704213007736944 0  0.07934656179076068 0.01733823814273861 0  0.04505722114764669 0.01295786992263056 0  0.06625 0.0175 0  0.006250000000000001 0.0175 0  0.05750000000000001 0.02 0  0.05875000000000001 0.0175 0  0.005 0.0225 0  0.005 0.0075 0  0.002375 0.027375 0  0.002375 0.002625000000000001 0  0.0475 0.01 0  0.0175 0.02 0  0.0325 0.01 0  0.03375 0.0121875 0  0.04261299435028249 0.01749205508474576 0  0.08500000000000001 0.0125 0  0.08250000000000002 0.01 0  0.02121963399965531 0.01224824108143494 0  0.0675 0.02 0  0.0125 0.02 0  0.02720152243589744 0.0175 0  0.03715165441176471 0.0175 0  0.08500000000000001 0.0175 0  0.0275 0.01 0  0.0025 0.0149560546875 0  0.0075 0.01 0  0.0075 0.02 0  0.06526785714285716 0.0125 0  0.01281031447005516 0.0125 0  0.0625 0.015 0  0.06 0.0125 0  0.05750000000000001 0.01 0  0.0625 0.02 0  0.0625 0.01 0  0.08250000000000002 0.02 0  0.04260103740101855 0.01252623201412851 0  0.02240052247582197 0.01750164767101344 0  0.07293583459427785 0.01238479732953041 0  0.005234374999999999 0.012265625 0  0.03528131980640358 0.01454684009679821 0  0.0325 0.01760027210036557 0  0.02532593822924343 0.01428227733767297 0  0.08009952069819683 0.01527145502895417 0  0.01987282359856536 0.01482587683689801 0  0.04828232595121382 0.01210233572595705 0  0.01671767404878618 0.01789766427404295 0  0.05125 0.01829007549029352 0  0.05247215456215357 0.01288882122882024 0  0.07338729919678716 0.01799385040160642 0  0.03838729919678716 0.01200614959839357 0  0.07717482110586968 0.01780301674207099 0  0.04771860040890012 0.01773306039388322 0  0.03125 0.01160380747126437 0  0.06875000000000001 0.01154265873015873 0  0.07625000000000001 0.01154065860215054 0  0.01625 0.01153997817696946 0  0.068125 0.018125 0  0.05437500000000001 0.015625 0  0.066875 0.015625 0  0.07039794950204951 0.01494384850614853 0  0.05687500000000001 0.018125 0  0.006875 0.015625 0  0.008749999999999999 0.01833333333333333 0  0.010625 0.015625 0  0.05625 0.01416666666666667 0  0.05812500000000001 0.015625 0  0.0449088595298192 0.01494528408816316 0  0 0.016875 0  0 0.013125 0  0.04962452342047931 0.01478673066448802 0  0.0153754765795207 0.01521326933551198 0  0.0771774565913315 0.01322498191305479 0  0.01857756431135545 0.01840228599899994 0  0.04642243568864456 0.01159771400100006 0  0.08125000000000002 0.01155637254901961 0  0.08317650804863432 0.0118234919513657 0  0.08288217288011697 0.01511353252923977 0  0.02837253504384828 0.0117177464035174 0  0.03896057962520807 0.01831163685754031 0  0.01125 0.0114244162490927 0  0.00935910490099115 0.0119067901980177 0  0.02946078431372549 0.01495404411764706 0  0.02875 0.0185829434466942 0  0.002968749999999999 0.0225 0  0.064375 0.016875 0  0.00296875 0.0075 0  0 0.001875 0  0 0.005625 0  0 0.009375 0  0 0.020625 0  0 0.024375 0  0 0.028125 0  0.06062500000000001 0.01812500000000001 0  0.008303571428571429 0.01446428571428572 0  0.01375 0.01865917058160413 0  0.05137790313978056 0.01143372888932909 0  0.04125000000000001 0.01131513063942604 0  0.04101690263896279 0.01844430285842771 0  0.02399563533148224 0.01844349395710867 0  0.08125000000000002 0.01868815426145731 0  0.05354684380692146 0.01145463537600848 0  0.01699195823639423 0.01315138909884649 0  0.07598357371794873 0.015 0  0.04098357371794872 0.015 0  0.003744047619047619 0.00375 0  0.003344630281690141 0.02580853873239437 0  0.04625 0.0187354532243972 0  0.06388392857142858 0.01138392857142858 0  0.06375 0.01375 0  0.05875 0.01375 0  0.06375 0.02 0  0.00622802734375 0.01372802734375 0  0.003630681818181818 0.001369318181818182 0  0.003630681818181818 0.02863068181818182 0  0.06125 0.01625 0  0.06125 0.01125 0  0.05625000000000001 0.01 0  0.05875 0.01125 0  0.06125 0.01375 0  0.08337864763241221 0.0183786476324122 0  0.05213634138653413 0.01674432930673294 0  0.04375000000000001 0.01 0  0.07424178685897437 0.01529258578431373 0  0.03924178685897436 0.01529258578431372 0  0.03410139294454583 0.01843406022904556 0  0.03089860705545417 0.01843406022904556 0  0.02094160484316717 0.01850229584291991 0  0.04375000000000001 0.02 0  0.04437042160883325 0.01820701498672512 0  0.04816311705429156 0.01600061344661149 0  0.07151224904251052 0.0114127410511319 0  0.04395528506193162 0.01639387970349481 0  0.0128750358694518 0.0167500179347259 0  0.02855808448399799 0.01642839899839741 0  0.02812690373330794 0.01340955081400569 0  0.08358500641945087 0.01351822349116885 0  0.05590277777777778 0.01173611111111111 0  0.06683110430364615 0.01164926404662283 0  0.02573206694914602 0.01842532451809762 0  0.01438126661842046 0.01166701193099454 0  0.02384283211216029 0.01526549696571563 0  0.03625 0.02 0  0.004609375000000001 0.0182421875 0  0.003398437500000001 0.01943359375 0  0.001728307845744682 0.01894718251329787 0  0.004377805359085963 0.01656966216675735 0  0.04649673309852075 0.0153889662370871 0  0.03615513600614297 0.01592654988586041 0  0.03316985071935832 0.01598763605018279 0  0.03110111603888768 0.01529816275177977 0  0.01370614113484869 0.0138804542047638 0  0.04930041102671841 0.01842260568883502 0  0.07875000000000001 0.02 0  0.0745395359848485 0.01165101111925709 0  0.03860755698543604 0.01373741558556884 0  0.02605038706571737 0.01573944002207753 0  0.07559826163500957 0.01841729376139847 0  0.04437500000000001 0.01149157931286774 0  0.06874116707361365 0.01454618473032123 0  0.003761917372881356 0.0239307468220339 0  0.003984374999999999 0.01125 0  0.003768503289473684 0.01392539576480263 0  0.001796875 0.0111328125 0  0.003761917372881356 0.008930746822033899 0  0.005 0.00625 0  0.003761917372881355 0.0210692531779661 0  0.06633928571428571 0.01410714285714285 0  0.006484375 0.01125 0  0.08364120589325512 0.01657288979763549 0  0.03576267476503373 0.0184116442851204 0  0.07370875846579374 0.0137848203678562 0  0.06964285714285715 0.01758928571428571 0  0.05520833333333334 0.01833333333333333 0  0.06491071428571429 0.01839285714285714 0  0.0510098951944636 0.01559941474766356 0  0.01786087179886325 0.0115702210443714 0  0.01972197383235524 0.01160576093166696 0  0.01804697593127788 0.01433503795474974 0  0.001644074528704677 0.01642892723865279 0  0.00125 0.03 0  0.001497685185185185 0.001267746913580247 0  0.07315451164202422 0.01643443118912983 0  0.001233906745910645 0.0140625 0  0.01162635071030191 0.01362229857939618 0  0.01528023503083844 0.01845923557506155 0  0.06625 0.02 0  0.07695012019230771 0.01624387078484555 0  0.03139091092855769 0.01320776147621796 0  0.03857339107781042 0.01675295051810485 0  0.001754993120977522 0.02590789105493891 0  0.002288757784711197 0.00412546923654445 0  0.07914382119690884 0.01404430049871201 0  0.001391810103286306 0.01257390899021902 0  0.0419501201923077 0.01614675005432421 0  0.001484375 0.007018229166666667 0  0.001484375 0.02201822916666666 0  0.048
[...]
<PointData  Scalars="concentration"> 
<DataArray  type="Float64"  Name="concentration"  format="ascii">5.3676590522128453e-01  9.7560358326647112e-01  9.9999999999999922e-01  9.9999999999999922e-01  -4.1359030627651376e-21  -9.9358608734396841e-22  4.4650840446114719e-02  5.3637741067286426e-01  5.4880206464374071e-01  4.7730680905474689e-03  9.9816754420737508e-01  5.4586922155083728e-01  5.2730137250493769e-01  4.6943288609662492e-01  6.0338893089359036e-01  5.3786323954010284e-01  5.3527450783580177e-01  5.6148986154494263e-01  5.1144392129405614e-01  5.3705216156657154e-01  5.3609244513066145e-01  7.1449871593032210e-01  3.5630644904701453e-01  5.3310274292579796e-01  5.4003260812960452e-01  5.3578370023113298e-01  5.3736113638370075e-01  5.3087736819586706e-01  4.9540940205120498e-01  5.7737799876541607e-01  5.2132192894246476e-01  2.4006984074558382e-01  6.4561082572988249e-01  5.3657022836446211e-01  5.3657149499175205e-01  5.4223628386171818e-01  5.3657080966700188e-01  5.5177334671586920e-01  5.3657276580451618e-01  5.3656824705064510e-01  4.2700688228856420e-01  8.2390955774800101e-01  5.3670367310575195e-01  5.3853805452320180e-01  5.3627929065377566e-01  5.3686510556515532e-01  5.3001515717227998e-01  5.3657676815220634e-01  5.3657296540330102e-01  2.1073461877845316e-04  5.4814318541017992e-01  5.3660661240890273e-01  5.3657146301231562e-01  9.9994938222020080e-01  5.3445773979180589e-01  5.3868498360749095e-01  5.7144018087240667e-01  5.3488390238948558e-01  5.3692799776836619e-01  6.7530622190960621e-01  5.3780266220158379e-01  2.1102337947734052e-04  9.4193989642818232e-01  9.4954874080525623e-02  9.9994830761559361e-01  5.3645490555222164e-01  5.3556823874797821e-01  2.6025057760225928e-01  5.3779705139102485e-01  5.3458173758228833e-01  5.3535724894507775e-01  5.3672152350248981e-01  5.3602404568848760e-01  3.9606304390693831e-01  4.5808516054917892e-01  5.4385744509678269e-01  5.4147465240644976e-01  1.8830206088568410e-01  9.9999999999999867e-01  6.8774702968832319e-22  8.7581020918938934e-01  4.4013429211469951e-01  5.3977999274016653e-01  5.6847744246609122e-01  5.5049445098046157e-01  5.5609031756657190e-01  5.5824383609757644e-01  5.8912395121118744e-01  5.4100514358309026e-01  3.0486123484366240e-01  5.2830169678671446e-01  5.1709754866425561e-01  6.2248804564956939e-01  5.7420107705174350e-01  5.3631174797403558e-01  5.3595787770625047e-01  5.3683071150272510e-01  5.3718707928219644e-01  5.4483746826310109e-01  4.5110582347084954e-01  4.8291425385423303e-01  5.4846567805578261e-01  5.2465487757598739e-01  5.3619340049158493e-01  5.3694775252852933e-01  5.3313181695768252e-01  5.3608526770391574e-01  5.3427461973159773e-01  9.9990193293681451e-01  9.9999924628213299e-01  7.2709603462512962e-01  6.5337036321588660e-01  4.1979309724396513e-01  5.2024410234007423e-01  1.6939988946958306e-02  5.3945124763834684e-01  5.3708537255649746e-01  6.4880934255167205e-06  4.1631077573695777e-04  4.9216451182224807e-01  9.9310215524124468e-01  5.1109552532420088e-01  5.3214639521577989e-01  5.3633199254961650e-01  6.0524678071477267e-01  5.3679098876849707e-01  5.3082283832841681e-01  5.3740708007067439e-01  8.3974260009236301e-01  5.3928864432392187e-01  5.3834316145451711e-01  9.9902924908655422e-01  2.8347036540720080e-03  1.0000009723466858e+00  -5.4530228563816849e-06  5.2932576411444920e-01  6.7629774555431066e-01  5.0470113266695071e-01  5.1394404419749451e-01  5.4528013603876135e-01  5.3643084938592933e-01  5.3634245732637320e-01  4.5979748027105460e-01  5.3757952457248337e-01  7.6271935855001838e-01  5.7626838310832640e-01  5.5134194362780764e-01  5.3671210080224596e-01  4.8429301877186631e-01  5.4333099961408582e-01  1.5553873666576551e-01  8.9652487476271747e-01  5.3564516524714867e-01  3.7175884367577072e-01  5.3657450736654821e-01  5.3502374993921642e-01  5.3384884612194672e-01  5.3823199171971448e-01  5.3491514286519914e-01  5.3680066222971645e-01  5.2794533518083953e-01  6.0042599790110385e-01  5.3612148335613885e-01  1.8017123445205227e-01  5.3283689443165883e-01  5.6080460155618062e-01  5.2107185025186475e-01  5.3659842089135934e-01  5.3060057369318170e-01  5.3104353622839562e-01  6.6070663275060870e-01  5.4099412354151377e-01  5.3372093150724287e-01  5.3704332015054457e-01  5.2167689053017174e-01  5.3688347885797483e-01  5.4218523978752231e-01  5.0427563546762177e-01  5.3576544724628961e-01  5.3618608957797687e-01  3.9290475454500418e-01  5.3738692638722385e-01  5.3733534532336857e-01  5.3679075911288443e-01  5.3655791312503853e-01  5.3904048472188149e-01  6.2575761571413080e-01  8.2485413779876937e-01  5.9694732263602412e-01  5.3573904408919104e-01  5.3709895666811924e-01  5.3641504091530801e-01  8.0168228783258721e-01  2.7546342179005995e-01  5.3616077725972411e-01  5.4959036637381586e-01  5.3635701101950195e-01  6.4971181483117169e-01  5.2930699123270164e-01  5.3633765520407450e-01  5.3638727874839176e-01  5.3657957980539461e-01  4.9433070235633608e-01  5.5152468430686730e-01  2.9334502412846958e-01  2.6615001096494084e-01  5.3584155942447576e-01  5.7924833654301655e-01  9.9921744862972706e-01  5.3736885007844715e-01  2.4924992172273060e-03  7.0525158465244581e-05  9.2904784848223761e-04  2.3028663622030439e-02  9.8862474233879849e-01  9.9971156939132311e-01  9.9998223526337826e-01  5.3828178318744369e-01  4.7996698735454096e-01  7.2526581214472119e-01  5.3198557315024508e-01  5.2392746235553067e-01  5.4915912228960129e-01  6.0326403212456159e-01  5.3681346039611044e-01  5.3289617524883071e-01  4.5197415532707358e-01  5.3657172830416022e-01  5.3658649684024318e-01  3.0406998052246737e-05  9.9999089758024318e-01  5.4433470316587185e-01  5.3523807586746575e-01  5.3598796723254782e-01  5.3561153086171553e-01  5.3803123077475767e-01  3.7188815557269456e-01  2.0599997910583971e-08  9.9999983829840866e-01  5.3732233648775585e-01  5.3480396822739806e-01  5.3351400697602447e-01  5.3431082489761450e-01  5.3582466692052122e-01  5.3675996815426352e-01  5.3907102655022054e-01  5.2603814160102114e-01  5.3662219093783015e-01  5.3813034674991311e-01  5.6128239467978558e-01  5.7034455932317962e-01  6.2757167109049627e-01  5.4707663794885741e-01  5.4516586111220644e-01  5.3877171737401663e-01  5.3594450067910182e-01  5.4118286223925904e-01  6.5861804153671577e-01  5.5807274433512488e-01  5.1203881222456971e-01  5.3647615771470958e-01  5.3378078721786160e-01  5.3561276939715718e-01  5.9245080200267508e-01  3.6698852430230616e-01  5.4309505519917445e-01  5.5871129139542164e-01  9.2144832427660128e-01  9.7606189214631711e-01  9.5819727402674881e-01  7.6997667589054597e-01  5.3762500710585681e-01  5.4330623696997493e-01  5.4615559125928859e-01  5.4025047200722254e-01  4.6337295405950113e-01  5.4203345926595092e-01  5.3690449864774503e-01  5.3612299124069918e-01  5.2952517478874672e-01  5.5126279119131449e-01  5.3697989990332351e-01  5.2754221534048951e-01  5.3643978743899601e-01  9.9984669774535673e-01  8.0954223629666269e-02  3.7985959711867157e-01  7.6979468760096842e-02  1.0658228172331826e-02  8.1534103515171772e-04  9.9592442879361076e-01  5.3624555549294073e-01  1.4113668862953080e-01  5.3667192839144651e-01  5.5748997364409136e-01  5.3635848744837611e-01  5.3718855201206472e-01  5.3960293832292694e-01  5.3773871481487223e-01  5.3759189275999064e-01  4.1437144733014186e-01  4.3504533211575863e-01  5.0835270467483862e-01  7.5736459522494104e-01  9.9999999999999944e-01  -3.7959390116893748e-06  5.3683559461084462e-01  4.0137821802304807e-01  4.2814453915580741e-01  6.9485815433733522e-01  5.3771357264631825e-01  5.3673174885739161e-01  5.1656609676305387e-01  5.4619923855529873e-01  9.9997664088088001e-01  7.3262582815891011e-05  5.3647307468888872e-01  1.9985070648321998e-01  5.4126303121577135e-01  1.8573535215793220e-03  9.9828174596043862e-01  5.3348272896627846e-01  5.3128049545029932e-01  6.1696715507218391e-01  5.3491021978673514e-01  5.3204310915571051e-01  6.1050978880497964e-01  5.3274927140688999e-01  5.6624342603544620e-01  5.3190405560012155e-01  5.3516983465810963e-01  5.2310969893870707e-01  5.7803475354369804e-01  4.9857604978958819e-01  4.8705748429347889e-01  4.7710724715190678e-01  4.6038027534264853e-01  4.7692919701628850e-01  4.6020117359436208e-01  5.3603459471819115e-01  5.3634515541105909e-01  5.3623671611009216e-01  9.9956233763932112e-01  3.3800964633721564e-04  8.7532700565119918e-03  4.9826390069567494e-01  1.0000005639735325e+00  5.1457045226617315e-01  5.2189274851496825e-01  5.3727584289377373e-01  5.3715638772504370e-01  5.3858950044159470e-01  5.3758750110197195e-01  5.3716816791124111e-01  7.4337694449355851e-01  5.1401030366479006e-01  5.1458143975954662e-01  5.1780422888821642e-01  7.8726143471830923e-01  9.3657477775540965e-01  5.3758004952077088e-01  5.3705994618151309e-01  5.3898604924527593e-01  5.4056523794024525e-01  5.2890594402613855e-01  7.9072066106521133e-01  5.3804142696121526e-01  7.9778122964092735e-01  7.4999262081216489e-01  8.8405429898755994e-01  5.3680106334352895e-01  5.3813785847934092e-01  5.3662941849384060e-01  5.3430473747349161e-01  3.4517884417436429e-01  5.3585487697053780e-01  5.3575262292794845e-01  5.3676476273355933e-01  5.3686744137160913e-01  5.3667904561477864e-01  3.0309695287135743e-04  5.4050659143850688e-01  5.3637373814716427e-01  5.3624005429527288e-01  5.3629463392213839e-01  6.9447213885044834e-01  5.3016455236079318e-01  8.9306226591470128e-01  5.5173918507216191e-01  5.3688537895096311e-01  7.2173951610583498e-01  2.0002386288590898e-01  1.9726482608154883e-01  5.7563194319426469e-01  4.1234074197909093e-01  4.9616180610609173e-01  5.3963624530305909e-01  5.3687372086363616e-01  5.3746261073033863e-01  5.3843859089610657e-01  5.1019654255313207e-01  5.4049696405490422e-01  3.3283847144531281e-01  5.2440289848976218e-01  9.9998755131202099e-01  7.7001181776361938e-05  9.9999937543376283e-01  5.3602984467437265e-01  4.9308204801107947e-01  5.2568116294697309e-01  4.0566851229646789e-02  5.5530188791033552e-01  5.4721439039155406e-01  4.3916839107656425e-01  7.2632975188690696e-01  5.3639002609506681e-01  5.3636723303819678e-01  5.3821610063978220e-01  5.3866617292141294e-01  5.3711501818328922e-01  5.1932265210089024e-01  5.3738296426655241e-01  5.1781457127245623e-01  5.0737617029689330e-01  5.0840605794637050e-01  4.6620315285018610e-01  5.5891751405303880e-01  5.3550040489161099e-01  4.8539434382450025e-01  5.2584670159269353e-01  5.5606995802708914e-01  5.4450998966427633e-01  5.7293845540842148e-01  5.3603377703012645e-01  3.2894756954024529e-01  5.5776978096412677e-01  5.7366339623961482e-01  5.8598735157501014e-01  5.5150737735991440e-01  6.2322294171854720e-01  5.3537004308418168e-01  5.3606163527118034e-01  5.3584950778038642e-01  3.6142794079818283e-02  5.3830029660534473e-01  3.4497546910237231e-01  6.0314847162363106e-01  6.1551367023034187e-01  5.3726737069693287e-01  5.3699491711770908e-01  5.4299380294795163e-01  5.9582873616731191e-01  5.3587089073515259e-01  5.6474912607392180e-01  5.3723673790747994e-01  5.3543310039806358e-01  5.3511180090456334e-01  5.3264748843655219e-01  5.3683060864221543e-01  6.1213925025787863e-01  5.3151389352235212e-01  5.2302950030607764e-01  5.5379355089550575e-01  5.3631287853951282e-01  5.3614608098749306e-01  5.3568160583273683e-01  5.4158594070524402e-01  5.5014997025926982e-01  9.9978005669549208e-01  5.3664762973136582e-01  5.3400811201174991e-01  5.3500794534486495e-01  7.3855820203298372e-01  2.7264223433978968e-01  8.5742800005580799e-01  3.7708606832983443e-01  9.1333005947279288e-03  3.3181748199533484e-01  6.8463093114670769e-22  3.9392128167978141e-05  7.2476261266890905e-07  1.0000000000000016e+00  -4.0055424093463230e-21  1.0143991943028965e-01  9.2390620532308554e-01  9.9603217875755956e-01  5.3649501138876310e-01  6.3342280742778045e-01  5.3590686377504504e-01  9.9999350090076899e-01  5.8271957146015829e-01  4.9045583820367339e-01  6.5999023376067090e-01  5.0048800797014348e-01  9.9999977414715202e-01  5.3675349656584825e-01  5.7283863679838753e-01  5.4021048549229733e-01  5.3656911124247619e-01  5.3572106648943907e-01  5.3481882233468203e-01  5.3458255282785938e-01  5.3416535595120551e-01  5.3519637728893144e-01  5.3469279075717391e-01  5.4482288917286448e-01  5.2835487571598716e-01  5.3897513529415042e-01  5.3677664032508754e-01  5.2704173074891336e-01  5.3678751062848995e-01  5.4312848703149874e-01  5.4558747871900992e-01  5.3447056549671024e-01  3.2727708370540309e-01  4.6554897134141709e-01  5.3459199478155195e-01  5.3638608188701709e-01  5.3706078677967140e-01  5.3642534346692650e-01  5.2922114730686942e-01  5.3612936370764530e-01  5.3680154999591256e-01  9.7328602395252750e-01  5.9464018972635324e-01  5.6820828084796937e-01  5.5628384565392808e-01  5.3690987363466303e-01  1.2125769683116203e-03  5.3696167547069984e-01  6.3956213573979715e-07  9.8389744548636693e-01  5.6846780228096749e-01  5.3676394900292634e-01  5.3627925519192021e-01  5.3320746841180444e-01  5.3555787778067143e-01  5.3646455839192864e-01  6.3462853622998427e-01  5.3987206785926767e-01  5.6802487041705507e-01  9.9989669707299456e-01  4.0117028856819315e-01  5.3620594906069075e-01  5.3645312101125397e-01  5.3256783300027988e-01  9.2726968413703287e-02  2.1790797556037861e-01  1.7607256880270231e-01  5.4109639431150447e-01  5.4186508558823987e-01  5.3650052665501724e-01  5.6179866105255194e-01  5.5079613417361617e-01  5.3773453725768072e-01  5.3887378720760593e-01  4.4621536551930790e-01  5.3696621126336419e-01  6.7007237285900534e-01  5.3256798904066194e-01  5.2994851669388066e-01  6.1999291680971824e-01  5.3630072698598696e-01  4.9416075043577196e-01  5.4271926945493143e-01  5.5445746624675551e-01  3.5065622694870097e-01  5.3670419917846579e-01  5.3684587291789543e-01  5.3654009793202373e-01  5.7089197252560808e-01  4.9194451495037883e-01  4.7695990820183343e-01  9.9999917654760950e-01  5.3669867301722496e-01  5.3703749117331989e-01  5.2526601516041005e-01  5.2459513673170721e-01  5.1022998463280611e-01  8.9777571682187482e-04  5.2156190023945348e-01  5.3266365551386652e-01  4.8061548696512901e-01  5.7387915775574205e-01  6.8716006161867527e-01  5.3677477973427690e-01  5.4857420169698135e-01  5.3648908956935826e-01  5.2797129471020909e-01  5.1772936995275431e-01  -1.1140457244206072e-06  5.1875493856747334e-01  5.3713191175695219e-01  5.0184058951882571e-01  5.3639320843222527e-01  5.4111556405877148e-01  3.7043092589762128e-01  3.2945285975293705e-02  5.3665470324650233e-01  5.3654637715882159e-01  5.4178725192603294e-01  5.4103718320953142e-01  5.3397649681666637e-01  5.3338543082817058e-01  5.2066957107143952e-01  5.3668074150788703e-01  5.3151944833642095e-01  6.8916162930980185e-01  8.6421853016797954e-04  4.0069060283843116e-03  9.9937548558334599e-01  4.6064200318908494e-01  5.3775526193937917e-01  8.3245861984172420e-01  8.3093810790471156e-01  8.6960556099388442e-01  7.6485963440013482e-01  5.3679977698092618e-01  5.3642160084508894e-01  5.4064902107221413e-01  5.3219333440441496e-01  5.3502022020098938e-01  5.1072650968896027e-01  5.3573704088018936e-01  5.4118579751693452e-01  5.4895977638429239e-01  5.5111885664445803e-01  1.6948284832370029e-05  6.6010573831565922e-01  9.9999752716892643e-01  5.3657212938781673e-01  5.3118348222340117e-01  5.7416188162337445e-01  5.3012132425654490e-01  5.2075906735205479e-01  6.5053335848663507e-01  9.9397528884666086e-01  9.6158113979783480e-02  5.6585146240034367e-01  1.1045936686074032e-04  5.0550929040300074e-01  4.9894217698153726e-01  9.9882401040109259e-01  9.9745566151346177e-01  3.5609183987528581e-03  5.4386414675489203e-01  5.4535796550362636e-01  6.4207671202143479e-01  5.2915937137832036e-01  5.4036674322739298e-01  9.9973346111831551e-01  6.8762800463994045e-03  5.1497732588811040e-01  2.2811040941872793e-01  9.0745032914874668e-01  9.4480776307922421e-01  5.3625353867343351e-01  5.3483139570222660e-01  5.5328653073440548e-01  5.3639038329107303e-01  5.3630128167501523e-01  5.3633295077572274e-01  5.3612304720332093e-01  5.3338153419698997e-01  5.3878399178200020e-01  5.3129852627931329e-01  5.3586987225233373e-01  5.3564282624186088e-01  6.8623637479615052e-01  5.3796916462699673e-01  6.0012391754581484e-01  5.4575019352087606e-01  5.3534334250625160e-01  5.3617958949074751e-01  5.3612195985808075e-01  5.3620404046547965e-01  5.3626872323258901e-01  3.8933959434600118e-01  3.9582712923826247e-01  3.6981422065400149e-01  5.5076434195997004e-01  5.3793791475446973e-01  5.3783859215943530e-01  5.3739911890469694e-01  6.4591358123812714e-01  5.3749718609048247e-01  5.3697842599708234e-01  5.3939017202996797e-01  5.3740483434107533e-01  5.3718016161620075e-01  5.3702511269238229e-01  7.4707887069022472e-01  6.8287961115960483e-01  5.3622594171350091e-01  6.0173683522750199e-01  5.3711231504288715e-01  5.3669390726017363e-01  5.3740487352709809e-01  5.3866865208743420e-01  5.3767943535478524e-01  5.3825206385978186e-01  5.3797805648660024e-01  5.3666670908033198e-01  5.3855953630870856e-01  5.3657630472175266e-01  5.3661276656963541e-01  5.3076409904825028e-01  5.3977507595840257e-01  5.3669291735730440e-01  1.0781250872818807e-05  5.4243093205804116e-01  5.4598008580174628e-01  2.5830174996120675e-01  5.2681407437082173e-01  6.2608743661424449e-01  6.2531290649994398e-01  5.5649926488783807e-01  2.6098378027193758e-01  3.2465121029324900e-01  5.3685370971015189e-01  5.3574674113694598e-01  5.8943186698926353e-01  5.8985936276601514e-01  5.0326549460320402e-01  5.3636679985714519e-01  5.3636017579155137e-01  5.3640415420427723e-01  5.2896479478864200e-01  7.6759039750595215e-01  5.3593297353996383e-01  5.3242015614727145e-01  5.4122087187437895e-01  5.3671902941102223e-01  5.2798926568908855e-01  5.3295691269482215e-01  5.2221880902042639e-01  5.2925149655764858e-01  5.3637837685293621e-01  5.0149135665621192e-01  4.8834621030302988e-01  4.9449968963948226e-01  9.9996280539794480e-01  1.1818365796753647e-01  5.3337157675269820e-01  5.3368525044811932e-01  5.3630436029976936e-01  4.2064803320658700e-01  5.4520802621925146e-01  5.1053973860276558e-01  5.3682437070097688e-01  1.0847400387802482e-04  4.3481324702804142e-01  5.2323015387774863e-01  5.3773770151302880e-01  2.1252370441678142e-03  5.4541003839412161e-01  5.4654562784756699e-01  5.4295341019232157e-01  3.3455969501923838e-01  2.9481913667742221e-01  9.9956304339040269e-01  5.2319121084193088e-01  7.1042957015322783e-01  5.7934857850697963e-01  5.4349603910884481e-01  5.3661246478633118e-01  5.3977155635692664e-01  5.3669791346921591e-01  4.1787001713112321e-01  9.9550317202721916e-01  9.9927074472900390e-01  4.8812012085168333e-02  5.3642215624578915e-01  4.3049530948510403e-04  1.1033126226234782e-02  1.6987344682573735e-01  4.0671318429113296e-01  9.9997519876132845e-01  8.8898775337123304e-01  9.9988363511266587e-01  5.1209492412253022e-01  5.3589566614892192e-01  6.9543381782441183e-01  5.3597309775440882e-01  9.9997015323193805e-01  4.1425720004319261e-01  4.3836857016486092e-01  5.4725623567130444e-01  4.5696528878355586e-01  6.0265285210503938e-01  6.0667928132331328e-01  5.3670344326262631e-01  5.3640200425776441e-01  4.3430554840841745e-01  5.3671927861108615e-01  5.3672936599961507e-01  5.3678966737698297e-01  5.4737539029201132e-01  5.4304737394549840e-01  9.9999899052034547e-01  5.2452781859202879e-01  4.5992778216787500e-01  5.3977682117789227e-01  7.1718504704618580e-01  7.4723031197939782e-01  5.3692625206214151e-01  5.3606959855603442e-01  1.0989654234090373e-04  5.0469089826025093e-01  5.5758676437082055e-01  5.3028845933782620e-01  5.3210013314928362e-01  5.3239784597993489e-01  5.3656586314645194e-01  5.3488629615206662e-01  5.2561490606543282e-01  5.2410091906937128e-01  5.3048544308653112e-01  5.3684339812641169e-01  4.9278242342208251e-01  7.0316579670335744e-01  4.7101993840708389e-01  5.7444474467135975e-01  5.6271818120747907e-01  5.6247731507045851e-01  9.5706878868373590e-01  9.1910579122510472e-01  3.7947036536974212e-02  5.4063470358058208e