<?xml version="1.0"?>
<VTKFile type="UnstructuredGrid"  version="0.1"  >
<UnstructuredGrid>
<Piece  NumberOfPoints="1079" NumberOfCells="1944">
<Points>
<DataArray  type="Float64"  NumberOfComponents="3"  format="ascii">0.08500000000000001 0.02 0  0.005 0.02 0  0.005 0.03 0  0 0.03 0  0 0 0  0.005 0 0  0.005 0.01 0  0.08500000000000001 0.01 0  0 0.015 0  0 0.0075 0  0 0.0225 0  0.04500000000000001 0.02 0  0.04500000000000001 0.01 0  0.025 0.01 0  0.025 0.02 0  0.065 0.02 0  0.065 0.01 0  0.035 0.02 0  0.035 0.01 0  0.07500000000000001 0.02 0  0.07500000000000001 0.01 0  0.015 0.02 0  0.015 0.01 0  0.05500000000000001 0.01 0  0.05500000000000001 0.02 0  0.07000000000000001 0.01 0  0.07000000000000001 0.02 0  0.05 0.01 0  0.03 0.01 0  0.03 0.02 0  0.04000000000000001 0.01 0  0.01 0.01 0  0.02 0.02 0  0.06 0.015 0  0.08500000000000001 0.015 0  0.05 0.02 0  0.07250000000000001 0.015 0  0.04000000000000001 0.02 0  0.03750000000000001 0.015 0  0.0525 0.015 0  0.02 0.01 0  0.01 0.02 0  0.0275 0.015 0  0.0125 0.015 0  0.08000000000000002 0.01 0  0.08000000000000002 0.02 0  0.0325 0.014375 0  0.04291666666666667 0.015 0  0.065 0.015 0  0.005 0.005 0  0.005 0.015 0  0.02208333333333334 0.015 0  0.07791666666666668 0.015 0  0.005 0.025 0  0.06 0.01 0  0.06 0.02 0  0.01729166666666667 0.01572916666666667 0  0.04770833333333334 0.01427083333333334 0  0.06875000000000001 0.01625 0  0.008750000000000001 0.01625 0  0.05625000000000001 0.01625 0  0 0.00375 0  0 0.01875 0  0 0.01125 0  0 0.02625 0  0.08145833333333334 0.01354166666666667 0  0.0675 0.01 0  0.0075 0.0125 0  0.0625 0.0175 0  0.0575 0.0125 0  0.0625 0.0125 0  0.08207465277777778 0.01707465277777778 0  0.06767857142857144 0.01321428571428571 0  0.0175 0.01 0  0.01875 0.01291382575757576 0  0.0475 0.02 0  0.04564168086314595 0.01679860519591141 0  0.00296875 0.0125 0  0.0025 0.03 0  0.0025 0 0  0.00296875 0.0175 0  0.01521990740740741 0.0132349537037037 0  0.0497800925925926 0.0167650462962963 0  0.0325 0.02 0  0.03474264705882353 0.01674632352941176 0  0.03750000000000001 0.02 0  0.03025735294117647 0.01674632352941176 0  0.0275 0.02 0  0.0525 0.02 0  0.0125 0.01 0  0.04020833333333334 0.01322916666666667 0  0.03750000000000001 0.01 0  0.0225 0.02 0  0.02479166666666667 0.01677083333333333 0  0.07520833333333335 0.01322916666666667 0  0.07250000000000001 0.01 0  0.07520833333333335 0.01677083333333334 0  0.07250000000000001 0.02 0  0.04020833333333334 0.01677083333333333 0  0.0225 0.01 0  0.02375 0.01262152777777778 0  0.04250000000000001 0.02 0  0.04250000000000001 0.01 0  0.07750000000000001 0.01 0  0.07750000000000001 0.02 0  0.05036151960784314 0.01294424019607843 0  0.0705560064935065 0.01284699675324675 0  0.05458333333333334 0.01291666666666666 0  0.0021875 0.024375 0  0.005 0.0275 0  0.01125 0.0175 0  0.01463848039215686 0.01705575980392157 0  0.01 0.01375 0  0.03625 0.0125 0  0.0021875 0.009375 0  0.05375000000000001 0.0175 0  0.07125000000000001 0.0175 0  0.005 0.0025 0  0.0021875 0.005625 0  0.02655220103578155 0.01234889948210923 0  0.002187499999999999 0.020625 0  0.02979166666666667 0.01302083333333333 0  0.0525 0.01 0  0.07895833333333334 0.0125 0  0.01994277885235332 0.01704213007736944 0  0.07934656179076068 0.01733823814273861 0  0.04505722114764669 0.01295786992263056 0  0.06625 0.0175 0  0.006250000000000001 0.0175 0  0.05750000000000001 0.02 0  0.05875000000000001 0.0175 0  0.005 0.0225 0  0.005 0.0075 0  0.002375 0.027375 0  0.002375 0.002625000000000001 0  0.0475 0.01 0  0.0175 0.02 0  0.0325 0.01 0  0.03375 0.0121875 0  0.04261299435028249 0.01749205508474576 0  0.08500000000000001 0.0125 0  0.08250000000000002 0.01 0  0.02121963399965531 0.01224824108143494 0  0.0675 0.02 0  0.0125 0.02 0  0.02720152243589744 0.0175 0  0.03715165441176471 0.0175 0  0.08500000000000001 0.0175 0  0.0275 0.01 0  0.0025 0.0149560546875 0  0.0075 0.01 0  0.0075 0.02 0  0.06526785714285716 0.0125 0  0.01281031447005516 0.0125 0  0.0625 0.015 0  0.06 0.0125 0  0.05750000000000001 0.01 0  0.0625 0.02 0  0.0625 0.01 0  0.08250000000000002 0.02 0  0.04260103740101855 0.01252623201412851 0  0.02240052247582197 0.01750164767101344 0  0.07293583459427785 0.01238479732953041 0  0.005234374999999999 0.012265625 0  0.03528131980640358 0.01454684009679821 0  0.0325 0.01760027210036557 0  0.02532593822924343 0.01428227733767297 0  0.08009952069819683 0.01527145502895417 0  0.01987282359856536 0.01482587683689801 0  0.04828232595121382 0.01210233572595705 0  0.01671767404878618 0.01789766427404295 0  0.05125 0.01829007549029352 0  0.05247215456215357 0.01288882122882024 0  0.07338729919678716 0.01799385040160642 0  0.03838729919678716 0.01200614959839357 0  0.07717482110586968 0.01780301674207099 0  0.04771860040890012 0.01773306039388322 0  0.03125 0.01160380747126437 0  0.06875000000000001 0.01154265873015873 0  0.07625000000000001 0.01154065860215054 0  0.01625 0.01153997817696946 0  0.068125 0.018125 0  0.05437500000000001 0.015625 0  0.066875 0.015625 0  0.07039794950204951 0.01494384850614853 0  0.05687500000000001 0.018125 0  0.006875 0.015625 0  0.008749999999999999 0.01833333333333333 0  0.010625 0.015625 0  0.05625 0.01416666666666667 0  0.05812500000000001 0.015625 0  0.0449088595298192 0.01494528408816316 0  0 0.016875 0  0 0.013125 0  0.04962452342047931 0.01478673066448802 0  0.0153754765795207 0.01521326933551198 0  0.0771774565913315 0.01322498191305479 0  0.01857756431135545 0.01840228599899994 0  0.04642243568864456 0.01159771400100006 0  0.08125000000000002 0.01155637254901961 0  0.08317650804863432 0.0118234919513657 0  0.08288217288011697 0.01511353252923977 0  0.02837253504384828 0.0117177464035174 0  0.03896057962520807 0.01831163685754031 0  0.01125 0.0114244162490927 0  0.00935910490099115 0.0119067901980177 0  0.02946078431372549 0.01495404411764706 0  0.02875 0.0185829434466942 0  0.002968749999999999 0.0225 0  0.064375 0.016875 0  0.00296875 0.0075 0  0 0.001875 0  0 0.005625 0  0 0.009375 0  0 0.020625 0  0 0.024375 0  0 0.028125 0  0.06062500000000001 0.01812500000000001 0  0.008303571428571429 0.01446428571428572 0  0.01375 0.01865917058160413 0  0.05137790313978056 0.01143372888932909 0  0.04125000000000001 0.01131513063942604 0  0.04101690263896279 0.01844430285842771 0  0.02399563533148224 0.01844349395710867 0  0.08125000000000002 0.01868815426145731 0  0.05354684380692146 0.01145463537600848 0  0.01699195823639423 0.01315138909884649 0  0.07598357371794873 0.015 0  0.04098357371794872 0.015 0  0.003744047619047619 0.00375 0  0.003344630281690141 0.02580853873239437 0  0.04625 0.0187354532243972 0  0.06388392857142858 0.01138392857142858 0  0.06375 0.01375 0  0.05875 0.01375 0  0.06375 0.02 0  0.00622802734375 0.01372802734375 0  0.003630681818181818 0.001369318181818182 0  0.003630681818181818 0.02863068181818182 0  0.06125 0.01625 0  0.06125 0.01125 0  0.05625000000000001 0.01 0  0.05875 0.01125 0  0.06125 0.01375 0  0.08337864763241221 0.0183786476324122 0  0.05213634138653413 0.01674432930673294 0  0.04375000000000001 0.01 0  0.07424178685897437 0.01529258578431373 0  0.03924178685897436 0.01529258578431372 0  0.03410139294454583 0.01843406022904556 0  0.03089860705545417 0.01843406022904556 0  0.02094160484316717 0.01850229584291991 0  0.04375000000000001 0.02 0  0.04437042160883325 0.01820701498672512 0  0.04816311705429156 0.01600061344661149 0  0.07151224904251052 0.0114127410511319 0  0.04395528506193162 0.01639387970349481 0  0.0128750358694518 0.0167500179347259 0  0.02855808448399799 0.01642839899839741 0  0.02812690373330794 0.01340955081400569 0  0.08358500641945087 0.01351822349116885 0  0.05590277777777778 0.01173611111111111 0  0.06683110430364615 0.01164926404662283 0  0.02573206694914602 0.01842532451809762 0  0.01438126661842046 0.01166701193099454 0  0.02384283211216029 0.01526549696571563 0  0.03625 0.02 0  0.004609375000000001 0.0182421875 0  0.003398437500000001 0.01943359375 0  0.001728307845744682 0.01894718251329787 0  0.004377805359085963 0.01656966216675735 0  0.04649673309852075 0.0153889662370871 0  0.03615513600614297 0.01592654988586041 0  0.03316985071935832 0.01598763605018279 0  0.03110111603888768 0.01529816275177977 0  0.01370614113484869 0.0138804542047638 0  0.04930041102671841 0.01842260568883502 0  0.07875000000000001 0.02 0  0.0745395359848485 0.01165101111925709 0  0.03860755698543604 0.01373741558556884 0  0.02605038706571737 0.01573944002207753 0  0.07559826163500957 0.01841729376139847 0  0.04437500000000001 0.01149157931286774 0  0.06874116707361365 0.01454618473032123 0  0.003761917372881356 0.0239307468220339 0  0.003984374999999999 0.01125 0  0.003768503289473684 0.01392539576480263 0  0.001796875 0.0111328125 0  0.003761917372881356 0.008930746822033899 0  0.005 0.00625 0  0.003761917372881355 0.0210692531779661 0  0.06633928571428571 0.01410714285714285 0  0.006484375 0.01125 0  0.08364120589325512 0.01657288979763549 0  0.03576267476503373 0.0184116442851204 0  0.07370875846579374 0.0137848203678562 0  0.06964285714285715 0.01758928571428571 0  0.05520833333333334 0.01833333333333333 0  0.06491071428571429 0.01839285714285714 0  0.0510098951944636 0.01559941474766356 0  0.01786087179886325 0.0115702210443714 0  0.01972197383235524 0.01160576093166696 0  0.01804697593127788 0.01433503795474974 0  0.001644074528704677 0.01642892723865279 0  0.00125 0.03 0  0.001497685185185185 0.001267746913580247 0  0.07315451164202422 0.01643443118912983 0  0.001233906745910645 0.0140625 0  0.01162635071030191 0.01362229857939618 0  0.01528023503083844 0.01845923557506155 0  0.06625 0.02 0  0.07695012019230771 0.01624387078484555 0  0.03139091092855769 0.01320776147621796 0  0.03857339107781042 0.01675295051810485 0  0.001754993120977522 0.02590789105493891 0  0.002288757784711197 0.00412546923654445 0  0.07914382119690884 0.01404430049871201 0  0.001391810103286306 0.01257390899021902 0  0.0419501201923077 0.01614675005432421 0  0.001484375 0.007018229166666667 0  0.001484375 0.02201822916666666 0  0.048
[...]
<PointData  Scalars="concentration"> 
<DataArray  type="Float64"  Name="concentration"  format="ascii">8.8357222012368120e-01  1.0028677970622482e+00  9.9999999999999845e-01  9.9999999999999944e-01  -1.2924697071141055e-22  -7.4169527175884148e-22  -3.6299919146929988e-03  1.7273550735085386e-01  6.5547743549800641e-01  -2.9594236867769226e-04  9.9915950206441917e-01  9.8032480551713075e-01  4.4344317978492524e-02  1.0568023119804115e-03  9.9892889561891096e-01  9.3672978860395251e-01  1.0049211995647823e-01  9.9328561878625521e-01  1.4307673959271010e-02  9.1431808614046139e-01  1.3559020190361015e-01  9.9955002365904877e-01  -2.2968562691278861e-03  7.5612458420288631e-02  9.5999677785274129e-01  1.2406407347898038e-01  9.3052638307088675e-01  6.4301538108480980e-02  3.5941981752488149e-03  9.9849682483222724e-01  3.3026354565425541e-02  -7.2295144837503707e-04  1.0006198072809835e+00  5.5328461816373087e-01  5.4300844145502036e-01  9.7041478552637195e-01  5.4451631989542015e-01  9.8827810802283433e-01  5.6551840996771330e-01  5.5330390487868142e-01  3.5386779821762956e-03  1.0003008598531264e+00  5.7793654307940967e-01  6.1594144731873024e-01  1.5044209407719647e-01  9.0193165323343805e-01  4.3733258344789672e-01  5.5907536031175720e-01  5.4758748432140714e-01  6.3257815328930273e-05  7.0488904639823846e-01  5.9092574264320552e-01  5.4415858520730087e-01  1.0000032920792234e+00  9.4977034777545669e-02  9.4963559274416676e-01  7.9054908353071796e-01  4.3267062749122481e-01  7.0820248816995590e-01  1.0023332957277238e+00  7.3433406847574012e-01  -4.8315673862654141e-06  1.0005724400582814e+00  -4.8770601870782963e-03  1.0000659247946104e+00  3.6466338077677707e-01  1.1326036913920960e-01  -2.0111243505136225e-02  8.5270029636433342e-01  2.0291880486848721e-01  2.1663649375840935e-01  7.7268050297749080e-01  3.0740014627595941e-01  -1.0699739699512431e-03  1.0334054176447813e-01  9.7661806433942511e-01  8.2428328871021950e-01  1.5078963023595522e-02  9.9999999999999889e-01  -7.2297288422241136e-22  9.9153834238991589e-01  1.1236098351213496e-01  8.0926604270921820e-01  9.9685694308717476e-01  8.5272752481819447e-01  9.8987996290187119e-01  8.7510748660866611e-01  1.0027398689203386e+00  9.6332794509651920e-01  2.1039506499767532e-03  2.4889795805743889e-01  2.5409453312764032e-02  1.0013919760460941e+00  9.0058002800095704e-01  3.1939667452698778e-01  1.2294595001103829e-01  7.5569367641865115e-01  9.2088991539004150e-01  8.4126200096784187e-01  -2.2826826262657466e-03  8.8947498483396739e-02  9.8776501695737695e-01  3.3344411867562720e-02  1.3440909820743691e-01  9.1311291121662397e-01  2.3972164191841583e-01  2.6872799190995322e-01  2.4368940044177631e-01  1.0004058792551143e+00  9.9998818549184765e-01  1.0047579425468132e+00  9.8239027841759941e-01  1.5521415429634433e-01  1.3451899974742992e-01  6.3192309796265345e-04  8.7268395320729708e-01  8.3442549642344432e-01  2.9452123483315330e-06  -3.9320892894559251e-05  7.6020840292915073e-02  9.9835756453121105e-01  1.8081900375020635e-01  6.8903074728267760e-02  2.5033236779529050e-01  9.6267005272528272e-01  8.0329959774315463e-01  2.2623655294511016e-01  8.4337358586626388e-01  9.8355916925162601e-01  9.5660259439872053e-01  8.6222516515735359e-01  9.9998287690796650e-01  -1.6832122154634031e-05  1.0000475155061030e+00  8.5078102221976307e-06  5.4724394160937183e-02  9.9734438927613189e-01  9.6447385759301906e-03  9.4512787444063717e-02  9.0684044938855046e-01  2.7253582187813552e-01  1.5602551403111106e-01  3.6279961323896638e-02  9.3172106234521290e-01  9.9935875370902494e-01  9.5866199958790077e-01  9.1450273083909950e-01  7.9649137927375269e-01  2.8660041665447447e-03  6.6137809033031558e-01  -5.6722777467896714e-04  1.0024180475690674e+00  2.2149783462502412e-01  1.0057706025796198e-02  5.4754843303199485e-01  2.1530201669411950e-01  8.3211383143784082e-02  9.4629244359049558e-01  9.5879202688384860e-02  9.0005477410811441e-01  1.6544747177709074e-01  9.7912556188624433e-01  2.2688257433073286e-01  -8.5170166225739235e-03  4.7548016334921595e-01  9.4289375608007786e-01  4.0563664655337822e-01  5.7807464433352218e-01  5.4649310195991141e-01  1.3509617424844522e-01  1.0017831296351862e+00  9.3144037139983693e-01  2.3663802474601775e-01  8.6487375683868362e-01  1.0314147721313620e-01  8.4537863190885898e-01  9.0677123869552001e-01  4.8388053632775159e-02  1.5554367371831571e-01  1.7533781355055889e-01  5.0288904046047879e-04  8.8197243980482898e-01  6.5076978732485180e-01  6.3517168259943524e-01  5.3882045986235005e-01  9.0793934438113044e-01  8.8811591412852253e-01  1.0018112665102838e+00  8.3780693833277831e-01  4.2259250250713098e-01  6.4672100580071112e-01  5.4947928502797039e-01  1.0026871399353623e+00  1.9385933700763261e-03  5.1988413263799793e-01  6.7473593964903356e-01  3.2087286417684774e-01  9.9561057913420048e-01  9.3840273439703165e-02  1.9144967726642959e-01  2.1407429897940791e-01  5.5702699473874417e-01  3.7283864368122289e-02  9.6113379872292481e-01  -7.8380981701091563e-04  1.4043494816096851e-03  5.6534572101082636e-01  9.9255834049168468e-01  1.0003846109094927e+00  7.8818479573864741e-01  -7.6785251173184889e-05  -1.3858119764935526e-05  1.0486417908964627e-04  -9.0847167558858247e-04  9.9754822377988772e-01  9.9986920973528293e-01  1.0000230271612620e+00  9.0182431252497464e-01  3.7226359124557107e-01  9.9947254708882483e-01  9.7737938434939664e-02  5.8165581849570741e-02  9.6629926641397468e-01  9.9844548430715785e-01  8.8015972126897701e-01  1.0747980863463119e-01  1.1328057006172208e-01  5.4513776931398117e-01  5.6169680738424799e-01  3.0615943198575890e-06  9.9997981475658126e-01  9.6245114266014131e-01  1.3171147594931221e-01  3.6810692003010631e-01  3.6654591144997350e-01  9.4043949554366246e-01  5.9465711770837926e-02  1.9856362202316341e-06  1.0000097520397293e+00  7.2171293057726049e-01  1.1949559554803052e-01  7.9489446069337513e-02  1.1138301351677983e-01  3.6810487800564462e-01  8.5936754910625646e-01  8.0289060196875672e-01  4.1502469359030646e-02  5.8317886402492358e-01  6.1749978414330642e-01  9.7685915172964910e-01  9.8241844809058776e-01  1.0003484497546411e+00  9.8123386315550643e-01  9.4220657748092651e-01  7.1213695004742072e-01  1.5645299816997557e-01  7.8274880742376474e-01  9.8196144660224316e-01  8.4239595883438545e-01  2.3859983481826089e-01  3.7003494543338883e-01  1.3212318189735886e-01  1.6007253859908238e-01  9.9112659588816965e-01  -8.2341607842631123e-04  6.4198283845547266e-01  9.9648370518767504e-01  9.9949184493079024e-01  9.9788990133227895e-01  9.9580481105392238e-01  9.9157915345618197e-01  6.2425758925971597e-01  7.3477998677387735e-01  7.5726740050968067e-01  6.3461404246442066e-01  2.3400775554122527e-01  9.4116490033086531e-01  9.0682516675063607e-01  1.7659310840091458e-01  3.2713222016505034e-01  7.3954354221403484e-01  8.8134891780869251e-01  8.1948329564811309e-02  4.8341388478767111e-01  1.0000090217858417e+00  3.4636069819557434e-03  9.0266862115808796e-02  3.3272869013726792e-03  -2.0176827080523174e-04  -1.2526274930875568e-04  1.0005932155273665e+00  4.2032725139748278e-01  -4.2780951549273843e-03  7.1693975810004118e-01  9.7439733672004381e-01  3.8463951333038482e-01  8.4416063629779670e-01  9.2580243032449994e-01  9.0605834066724678e-01  6.4904820459661250e-01  4.1325792391328602e-03  3.3815353910959193e-03  4.1090517483276506e-01  9.8561218615662360e-01  9.9999999999999944e-01  2.6785579310731820e-06  7.2308812678712042e-01  1.1921964347003797e-01  1.4960988590894175e-01  1.0011635885668191e+00  9.3837413870769082e-01  6.9922988100820527e-01  2.1770880440617005e-01  8.4223973667146135e-01  1.0000242460358031e+00  -2.2220669585815666e-07  4.2234092709918269e-01  -2.5464313721819520e-02  7.5412543036278890e-01  1.9190359091816073e-04  1.0007280304190374e+00  3.0339452524672422e-01  9.9266362336121364e-02  9.5173217155858780e-01  3.8654349504514529e-01  2.5522402594669275e-01  9.6148267055765302e-01  3.5986098939144545e-01  8.0444463041728798e-01  3.5333546729987420e-01  3.8303040732361582e-01  8.0885878928978208e-02  7.9563402710381537e-01  2.7421869234108204e-01  1.6449897284462400e-01  2.0105752154527933e-02  -2.2023996693170695e-03  -1.2279248825517747e-03  1.9437746207958812e-02  2.8019975076695469e-01  4.0711084539835096e-01  1.7322837738166874e-01  9.9997855141592285e-01  5.1211243788042801e-07  3.2359107665379889e-04  3.1241607719017267e-02  9.9998732355774189e-01  3.0054585393464728e-01  2.1210224156064678e-01  9.0729822592335341e-01  7.8338602069733243e-01  8.1143625299195643e-01  9.1811488941868391e-01  9.0157763048635897e-01  1.0079720087073565e+00  5.4523965025602042e-02  2.0322218426719711e-02  5.7897490097345787e-02  1.0049395841561692e+00  9.9267944540319164e-01  7.5241502719693043e-01  7.1693102589678981e-01  9.3708883771609941e-01  9.4151311097628965e-01  3.5206890100986954e-01  1.0000186928935701e+00  9.2724514533283242e-01  9.9888598352253410e-01  1.0003383678947604e+00  9.9767152177259288e-01  6.7999113619946683e-01  8.0076763414758545e-01  6.2872182382736352e-01  5.1834007001869886e-01  1.2355936589018769e-02  1.5366581428005355e-01  4.3735520963185376e-01  8.0393666114871953e-01  8.9110686119157567e-01  6.6878738955751660e-01  4.3180564188434967e-05  9.6424155473542761e-01  2.6754917546755597e-01  1.4734007546836392e-01  1.7735092571482039e-01  1.0001950108023332e+00  5.6389426997189643e-02  1.0032627539764676e+00  8.2233811877868324e-01  7.0775204847019302e-01  1.0434414610060649e+00  3.3108281662714255e-04  3.8066212145798357e-04  8.9213274890877603e-01  -5.4420143608642293e-03  1.4403177020871707e-01  9.5564089336625380e-01  6.3886730341783449e-01  9.3023794495084033e-01  9.4624004855495381e-01  3.2635935656758724e-01  8.0369069071901378e-01  -1.4048258145973578e-02  2.0179732659274416e-01  9.9999258539061231e-01  -1.0294617132773576e-05  1.0000144436719234e+00  1.3208317480462758e-01  3.4598732896506679e-01  3.8538972589287784e-01  -2.1954117252351386e-05  6.7793536171571001e-01  9.7084283684980377e-01  -3.6911340041585086e-03  1.0366103072804786e+00  1.9444872817229475e-01  1.6224249781089964e-01  9.2434666659022735e-01  9.2944251719548909e-01  9.1977156186562170e-01  2.3684010675205640e-02  9.1338860050292314e-01  1.9666890823141139e-01  4.4411129016163758e-02  1.8218624729980211e-02  9.5191092745594286e-02  7.3518337842978099e-01  3.6417098296008782e-01  1.6138370464767772e-02  5.9762583761097006e-02  9.8193333752338918e-01  7.8093725938122005e-01  8.5477275318982426e-01  1.5014443086922805e-01  -3.1087762771855828e-03  8.2054699769758488e-01  9.2228967737875922e-01  9.9364666095723064e-01  8.9708637802455671e-01  9.1930815109264730e-01  1.3010110459830229e-01  3.7103625888433889e-01  2.6404521804314557e-01  6.5148056670098710e-04  7.4668253446542787e-01  5.8848509491843982e-03  9.6888623433482046e-01  9.9879019187432028e-01  9.2477184777775134e-01  9.1056700406734215e-01  9.7112571114115509e-01  9.9937075126147468e-01  1.1700071494144887e-01  9.9535390554152636e-01  7.2083590168396472e-01  1.0933151961694945e-01  1.0669730701249305e-01  7.1581557339147367e-02  8.9791662885357582e-01  1.0008650229640510e+00  5.8525862883632700e-02  3.2108603843088765e-02  9.8888027102463172e-01  1.5332755066191842e-01  1.4216776199646669e-01  1.1852811847266057e-01  9.6912443052803865e-01  9.8948655562623022e-01  1.0000310814966571e+00  6.8323382009680778e-01  1.0624260232849024e-01  1.2028813550896553e-01  1.0000459587398911e+00  -8.5475896979011968e-06  9.9934587409530440e-01  -1.1105736223886397e-03  5.2438517494004340e-04  2.6859320272317150e-03  3.6680830756245729e-21  6.7136178910510382e-06  7.7565982044718925e-06  1.0000000000000016e+00  3.1293300073018145e-21  4.7424245148520467e-03  1.0085897778826511e+00  1.0003184946800077e+00  3.9620474109608933e-01  9.9935661939485632e-01  3.6826461955539219e-01  1.0000156064489976e+00  9.9868960182086142e-01  1.0852781335064381e-02  1.0012766767743875e+00  9.2879082717580910e-03  1.0000410932114869e+00  8.6677838447230038e-01  1.0000626490355065e+00  9.4579383657053728e-01  5.4762505869521494e-01  3.5995497430550683e-01  2.0623137669294045e-01  1.1486887691732710e-01  8.2400826440077901e-02  2.1216247519396125e-01  8.7529721176965627e-02  9.7986025906452101e-01  4.7731643233266077e-02  9.5964766433912885e-01  8.9283177816450099e-01  1.6680529773498259e-01  7.7348033857508725e-01  9.6427052206754582e-01  8.8533475627292713e-01  4.2481493166286310e-01  2.4645615364712306e-04  9.4096625624347143e-03  2.5215565949153529e-01  4.6767310984680333e-01  9.0249110892548534e-01  2.9808264632305209e-01  1.7806885966547290e-01  2.6594072859213069e-01  5.8330929697354228e-01  1.0017050673803396e+00  8.3002311927847083e-01  9.9078393103214801e-01  9.1972453148045930e-01  8.9080146010317351e-01  1.5546692831631251e-04  8.9861007960537331e-01  2.3239367287767243e-06  1.0022924175296575e+00  9.4399931554664174e-01  5.8338526113207390e-01  3.9038893633087135e-01  9.6292357649149382e-02  2.3048222262658857e-01  3.9871690562452283e-01  1.0008775969689758e+00  8.4362471532467986e-01  7.4916580774149111e-01  9.9989056512696395e-01  3.4705267553563054e-02  2.5998641651726034e-01  4.4819006837809039e-01  4.1577078796944633e-01  3.6879402194279895e-03  7.1932523663680026e-03  -1.1577002328085265e-02  8.7642665757922433e-01  6.9158358656154229e-01  4.2379724159830157e-01  9.3157990060768547e-01  7.2418772272457466e-01  8.6771049433249736e-01  8.6428587506085852e-01  3.8810053659107712e-03  8.4338219501097522e-01  1.0034193887611005e+00  2.5968401262371243e-01  6.6090544731857562e-02  9.6423005363760694e-01  3.6296917433377957e-01  4.2324973565788704e-01  9.0547882604648355e-01  9.8665026549028667e-01  -1.2924672906862891e-03  7.1426258786811003e-01  7.9187709290036168e-01  4.9722210271467593e-01  8.1266565200945140e-01  2.6540773026533726e-01  3.9959510962430722e-01  9.9998033362067662e-01  6.0321285212047393e-01  8.3469406890807873e-01  1.7050499072824657e-01  5.8248423458009435e-01  2.5033552112564063e-02  -8.0868750353986721e-05  2.3892045201086914e-01  1.2088984489961482e-01  1.6376037446052726e-02  9.8485815615648409e-01  9.9910566597985773e-01  8.5256449144311908e-01  9.7543860504853075e-01  4.6127444580686894e-01  6.2159874095147130e-02  5.0834520768151314e-01  -4.4473644729522809e-06  3.3654569711210038e-02  9.0926726712739092e-01  2.2019088612346807e-01  3.4116045447467724e-01  9.1428034893421806e-01  6.1588326427660219e-02  1.7804493041057672e-03  6.7900581911153823e-01  4.9679590980051352e-01  9.6270030847465804e-01  6.5040013361357918e-01  2.3358840159006483e-01  2.3191179354957345e-01  4.0297089559771897e-02  6.0211596314741556e-01  5.4569570193021633e-01  1.0036317596802773e+00  -9.5546190241945498e-05  -6.6668943064711079e-04  9.9931213358255500e-01  2.5438941667373421e-01  9.2823853177836346e-01  9.9095058766441846e-01  9.9991200918641232e-01  9.9838946945704121e-01  9.9946102002099846e-01  7.1562284888079319e-01  4.0734069397488809e-01  6.8658440373751195e-01  1.8748500304129170e-01  3.8110369795497834e-01  1.0213160793238035e-01  5.4164149444859089e-01  9.5928072537260900e-01  9.3716789849549897e-01  9.7969242332774598e-01  2.7628857764859139e-06  9.9501849210942162e-01  9.9999351993206187e-01  5.4638886899308325e-01  5.1001652041852941e-01  9.6576104447539601e-01  3.6785972821797047e-01  3.3327384055651399e-01  9.9965203770462008e-01  1.0001680233126540e+00  -7.3490131229138958e-03  9.9307901943654342e-01  2.3846109254946756e-05  8.5900284319090275e-02  1.3832628347210652e-02  9.9976118254826207e-01  9.9912018784882617e-01  -2.0629322264226004e-04  9.2772379949969286e-01  9.6956043122296987e-01  9.9139791649082643e-01  4.3368556066613478e-01  7.3422016593085704e-01  9.9992454574147116e-01  6.1054414244948783e-04  3.1529538523730270e-02  -2.1150522261139345e-04  1.0050244384428435e+00  1.0044392040933552e+00  1.5913834307361296e-01  3.9269197577498671e-01  7.2169542374076512e-01  2.6201944200846500e-01  1.5809737821108674e-01  1.6209565741009685e-01  5.3538690006352452e-01  3.7387411040800073e-01  6.8426683451640824e-01  7.0907898207100126e-02  2.2293890111970779e-01  1.2427407392481513e-01  9.6630163848500972e-01  6.7352691604919623e-01  8.8296939543002262e-01  6.4973676582234852e-01  4.5743856270869532e-01  1.4954808562469632e-01  1.4802106481638319e-01  2.1868023643758000e-01  2.5094533302584693e-01  -2.4789829435935455e-03  7.7326427713573223e-03  -9.8290049269532777e-04  9.3096202878579870e-01  9.3109046708985799e-01  8.1635712648219294e-01  7.7764570177644055e-01  9.5425400328126686e-01  9.2325867611707768e-01  6.7606545605549195e-01  9.5024070087882706e-01  8.6390579383645649e-01  8.1262052820487707e-01  6.0338967307813829e-01  1.0365472129057753e+00  9.9164800150073806e-01  4.8340109898047390e-01  8.4372967174687530e-01  7.4857868499474844e-01  5.9045579225742417e-01  8.2160299321989938e-01  8.8632443489374235e-01  7.5376533681646185e-01  8.7140328475188056e-01  8.6646881458575720e-01  5.6791984559214015e-01  9.3991152044517434e-01  5.4824950357677193e-01  6.1829806891520978e-01  1.5667939586821822e-01  9.5258357409174488e-01  6.7414135124589059e-01  1.4473063838786752e-06  6.5502113865148648e-01  7.1303825823449551e-01  1.2052874252912391e-03  4.3199983417694243e-01  1.0006843290300504e+00  9.9287317537266895e-01  9.4781910050805485e-01  -8.3069210807376701e-03  -6.2278874587017386e-03  8.5664485426363024e-01  1.2473071780523287e-01  9.6320010739289530e-01  9.7827061157721651e-01  1.5505767965142178e-02  2.0784330267050180e-01  1.6510795248093896e-01  2.2756364365680226e-01  1.2318242703512970e-01  9.9936928407750514e-01  5.3227187782635277e-01  4.0076065840072073e-01  7.3753816560803009e-01  6.7390271494674681e-01  3.6362198649186206e-01  3.8381214383358064e-01  4.1631238379910576e-02  6.4208788284247975e-02  1.7926770124863148e-01  8.4060203977801812e-02  1.1033896780743298e-02  6.9836031796012277e-02  1.0000238112474449e+00  7.6392307827579230e-03  8.5545900287526108e-02  9.1773057419874307e-02  2.5180371010867975e-01  3.5717559789994864e-02  7.5084499742373334e-01  4.2719042487211556e-01  8.6646787953769988e-01  1.9002883089032105e-06  -4.3235368760991795e-03  4.4278175608461662e-01  6.4546790972143475e-01  -5.5930879969757755e-05  9.3104723340601836e-01  9.7541488485602690e-01  8.7322024683994492e-01  -6.9603184416143294e-03  1.2551995330682987e-03  1.0000079573353868e+00  4.9332904040067888e-01  1.0031963477595500e+00  9.9856277800147875e-01  9.5641723572556536e-01  5.8308849381002392e-01  8.7938411035376773e-01  7.2007788946773599e-01  1.9621238219228346e-03  1.0002885686537186e+00  1.0002076688085859e+00  2.6981269534219624e-03  5.0185825809280216e-01  5.8398499315146550e-06  1.5508463196387131e-04  1.6543449154098524e-02  2.0431481460319045e-01  1.0000350659625701e+00  9.9672755973625060e-01  1.0001305160388376e+00  3.5780752427844542e-01  1.9632673980199164e-01  1.0037443684902967e+00  1.4321672106117050e-01  9.9989935583527823e-01  1.2440908803163970e-02  4.6773873541908428e-02  9.4013003353595215e-01  2.1677212005686564e-03  9.9123819925164458e-01  9.9878437585321234e-01  6.5345347949605803e-01  3.2556677515836702e-01  1.9323355739868806e-02  8.0093903549517242e-01  8.0236814258615075e-01  8.8818690188314087e-01  8.8985659806182971e-01  7.7041516680601418e-01  9.9993075107122986e-01  2.5271894621696672e-01  3.0724679075090611e-01  6.7548146319057190e-01  9.9898803993984819e-01  9.9949307452973457e-01  7.9663978582055739e-01  1.4228367336564601e-01  -2.5201480633596983e-05  1.8019575887253686e-01  6.9950892656084018e-01  1.6688422963803320e-01  7.8182153487579689e-02  1.5282781406475715e-01  5.3434958129743793e-01  2.7487273705326887e-01  8.4368256262987815e-02  4.3532405124024863e-02  6.9032135701099728e-02  8.9708550635421103e-01  9.3502612153772285e-03  1.0011642120802093e+00  1.8165096435816178e-01  9.9655543489175757e-01  9.9314442163668415e-01  9.7127313896391121e-01  9.9723892774168343e-01  9.9485784012710210e-