<?xml version="1.0"?>
<VTKFile type="UnstructuredGrid"  version="0.1"  >
<UnstructuredGrid>
<Piece  NumberOfPoints="1079" NumberOfCells="1944">
<Points>
<DataArray  type="Float64"  NumberOfComponents="3"  format="ascii">0.08500000000000001 0.02 0  0.005 0.02 0  0.005 0.03 0  0 0.03 0  0 0 0  0.005 0 0  0.005 0.01 0  0.08500000000000001 0.01 0  0 0.015 0  0 0.0075 0  0 0.0225 0  0.04500000000000001 0.02 0  0.04500000000000001 0.01 0  0.025 0.01 0  0.025 0.02 0  0.065 0.02 0  0.065 0.01 0  0.035 0.02 0  0.035 0.01 0  0.07500000000000001 0.02 0  0.07500000000000001 0.01 0  0.015 0.02 0  0.015 0.01 0  0.05500000000000001 0.01 0  0.05500000000000001 0.02 0  0.07000000000000001 0.01 0  0.07000000000000001 0.02 0  0.05 0.01 0  0.03 0.01 0  0.03 0.02 0  0.04000000000000001 0.01 0  0.01 0.01 0  0.02 0.02 0  0.06 0.015 0  0.08500000000000001 0.015 0  0.05 0.02 0  0.07250000000000001 0.015 0  0.04000000000000001 0.02 0  0.03750000000000001 0.015 0  0.0525 0.015 0  0.02 0.01 0  0.01 0.02 0  0.0275 0.015 0  0.0125 0.015 0  0.08000000000000002 0.01 0  0.08000000000000002 0.02 0  0.0325 0.014375 0  0.04291666666666667 0.015 0  0.065 0.015 0  0.005 0.005 0  0.005 0.015 0  0.02208333333333334 0.015 0  0.07791666666666668 0.015 0  0.005 0.025 0  0.06 0.01 0  0.06 0.02 0  0.01729166666666667 0.01572916666666667 0  0.04770833333333334 0.01427083333333334 0  0.06875000000000001 0.01625 0  0.008750000000000001 0.01625 0  0.05625000000000001 0.01625 0  0 0.00375 0  0 0.01875 0  0 0.01125 0  0 0.02625 0  0.08145833333333334 0.01354166666666667 0  0.0675 0.01 0  0.0075 0.0125 0  0.0625 0.0175 0  0.0575 0.0125 0  0.0625 0.0125 0  0.08207465277777778 0.01707465277777778 0  0.06767857142857144 0.01321428571428571 0  0.0175 0.01 0  0.01875 0.01291382575757576 0  0.0475 0.02 0  0.04564168086314595 0.01679860519591141 0  0.00296875 0.0125 0  0.0025 0.03 0  0.0025 0 0  0.00296875 0.0175 0  0.01521990740740741 0.0132349537037037 0  0.0497800925925926 0.0167650462962963 0  0.0325 0.02 0  0.03474264705882353 0.01674632352941176 0  0.03750000000000001 0.02 0  0.03025735294117647 0.01674632352941176 0  0.0275 0.02 0  0.0525 0.02 0  0.0125 0.01 0  0.04020833333333334 0.01322916666666667 0  0.03750000000000001 0.01 0  0.0225 0.02 0  0.02479166666666667 0.01677083333333333 0  0.07520833333333335 0.01322916666666667 0  0.07250000000000001 0.01 0  0.07520833333333335 0.01677083333333334 0  0.07250000000000001 0.02 0  0.04020833333333334 0.01677083333333333 0  0.0225 0.01 0  0.02375 0.01262152777777778 0  0.04250000000000001 0.02 0  0.04250000000000001 0.01 0  0.07750000000000001 0.01 0  0.07750000000000001 0.02 0  0.05036151960784314 0.01294424019607843 0  0.0705560064935065 0.01284699675324675 0  0.05458333333333334 0.01291666666666666 0  0.0021875 0.024375 0  0.005 0.0275 0  0.01125 0.0175 0  0.01463848039215686 0.01705575980392157 0  0.01 0.01375 0  0.03625 0.0125 0  0.0021875 0.009375 0  0.05375000000000001 0.0175 0  0.07125000000000001 0.0175 0  0.005 0.0025 0  0.0021875 0.005625 0  0.02655220103578155 0.01234889948210923 0  0.002187499999999999 0.020625 0  0.02979166666666667 0.01302083333333333 0  0.0525 0.01 0  0.07895833333333334 0.0125 0  0.01994277885235332 0.01704213007736944 0  0.07934656179076068 0.01733823814273861 0  0.04505722114764669 0.01295786992263056 0  0.06625 0.0175 0  0.006250000000000001 0.0175 0  0.05750000000000001 0.02 0  0.05875000000000001 0.0175 0  0.005 0.0225 0  0.005 0.0075 0  0.002375 0.027375 0  0.002375 0.002625000000000001 0  0.0475 0.01 0  0.0175 0.02 0  0.0325 0.01 0  0.03375 0.0121875 0  0.04261299435028249 0.01749205508474576 0  0.08500000000000001 0.0125 0  0.08250000000000002 0.01 0  0.02121963399965531 0.01224824108143494 0  0.0675 0.02 0  0.0125 0.02 0  0.02720152243589744 0.0175 0  0.03715165441176471 0.0175 0  0.08500000000000001 0.0175 0  0.0275 0.01 0  0.0025 0.0149560546875 0  0.0075 0.01 0  0.0075 0.02 0  0.06526785714285716 0.0125 0  0.01281031447005516 0.0125 0  0.0625 0.015 0  0.06 0.0125 0  0.05750000000000001 0.01 0  0.0625 0.02 0  0.0625 0.01 0  0.08250000000000002 0.02 0  0.04260103740101855 0.01252623201412851 0  0.02240052247582197 0.01750164767101344 0  0.07293583459427785 0.01238479732953041 0  0.005234374999999999 0.012265625 0  0.03528131980640358 0.01454684009679821 0  0.0325 0.01760027210036557 0  0.02532593822924343 0.01428227733767297 0  0.08009952069819683 0.01527145502895417 0  0.01987282359856536 0.01482587683689801 0  0.04828232595121382 0.01210233572595705 0  0.01671767404878618 0.01789766427404295 0  0.05125 0.01829007549029352 0  0.05247215456215357 0.01288882122882024 0  0.07338729919678716 0.01799385040160642 0  0.03838729919678716 0.01200614959839357 0  0.07717482110586968 0.01780301674207099 0  0.04771860040890012 0.01773306039388322 0  0.03125 0.01160380747126437 0  0.06875000000000001 0.01154265873015873 0  0.07625000000000001 0.01154065860215054 0  0.01625 0.01153997817696946 0  0.068125 0.018125 0  0.05437500000000001 0.015625 0  0.066875 0.015625 0  0.07039794950204951 0.01494384850614853 0  0.05687500000000001 0.018125 0  0.006875 0.015625 0  0.008749999999999999 0.01833333333333333 0  0.010625 0.015625 0  0.05625 0.01416666666666667 0  0.05812500000000001 0.015625 0  0.0449088595298192 0.01494528408816316 0  0 0.016875 0  0 0.013125 0  0.04962452342047931 0.01478673066448802 0  0.0153754765795207 0.01521326933551198 0  0.0771774565913315 0.01322498191305479 0  0.01857756431135545 0.01840228599899994 0  0.04642243568864456 0.01159771400100006 0  0.08125000000000002 0.01155637254901961 0  0.08317650804863432 0.0118234919513657 0  0.08288217288011697 0.01511353252923977 0  0.02837253504384828 0.0117177464035174 0  0.03896057962520807 0.01831163685754031 0  0.01125 0.0114244162490927 0  0.00935910490099115 0.0119067901980177 0  0.02946078431372549 0.01495404411764706 0  0.02875 0.0185829434466942 0  0.002968749999999999 0.0225 0  0.064375 0.016875 0  0.00296875 0.0075 0  0 0.001875 0  0 0.005625 0  0 0.009375 0  0 0.020625 0  0 0.024375 0  0 0.028125 0  0.06062500000000001 0.01812500000000001 0  0.008303571428571429 0.01446428571428572 0  0.01375 0.01865917058160413 0  0.05137790313978056 0.01143372888932909 0  0.04125000000000001 0.01131513063942604 0  0.04101690263896279 0.01844430285842771 0  0.02399563533148224 0.01844349395710867 0  0.08125000000000002 0.01868815426145731 0  0.05354684380692146 0.01145463537600848 0  0.01699195823639423 0.01315138909884649 0  0.07598357371794873 0.015 0  0.04098357371794872 0.015 0  0.003744047619047619 0.00375 0  0.003344630281690141 0.02580853873239437 0  0.04625 0.0187354532243972 0  0.06388392857142858 0.01138392857142858 0  0.06375 0.01375 0  0.05875 0.01375 0  0.06375 0.02 0  0.00622802734375 0.01372802734375 0  0.003630681818181818 0.001369318181818182 0  0.003630681818181818 0.02863068181818182 0  0.06125 0.01625 0  0.06125 0.01125 0  0.05625000000000001 0.01 0  0.05875 0.01125 0  0.06125 0.01375 0  0.08337864763241221 0.0183786476324122 0  0.05213634138653413 0.01674432930673294 0  0.04375000000000001 0.01 0  0.07424178685897437 0.01529258578431373 0  0.03924178685897436 0.01529258578431372 0  0.03410139294454583 0.01843406022904556 0  0.03089860705545417 0.01843406022904556 0  0.02094160484316717 0.01850229584291991 0  0.04375000000000001 0.02 0  0.04437042160883325 0.01820701498672512 0  0.04816311705429156 0.01600061344661149 0  0.07151224904251052 0.0114127410511319 0  0.04395528506193162 0.01639387970349481 0  0.0128750358694518 0.0167500179347259 0  0.02855808448399799 0.01642839899839741 0  0.02812690373330794 0.01340955081400569 0  0.08358500641945087 0.01351822349116885 0  0.05590277777777778 0.01173611111111111 0  0.06683110430364615 0.01164926404662283 0  0.02573206694914602 0.01842532451809762 0  0.01438126661842046 0.01166701193099454 0  0.02384283211216029 0.01526549696571563 0  0.03625 0.02 0  0.004609375000000001 0.0182421875 0  0.003398437500000001 0.01943359375 0  0.001728307845744682 0.01894718251329787 0  0.004377805359085963 0.01656966216675735 0  0.04649673309852075 0.0153889662370871 0  0.03615513600614297 0.01592654988586041 0  0.03316985071935832 0.01598763605018279 0  0.03110111603888768 0.01529816275177977 0  0.01370614113484869 0.0138804542047638 0  0.04930041102671841 0.01842260568883502 0  0.07875000000000001 0.02 0  0.0745395359848485 0.01165101111925709 0  0.03860755698543604 0.01373741558556884 0  0.02605038706571737 0.01573944002207753 0  0.07559826163500957 0.01841729376139847 0  0.04437500000000001 0.01149157931286774 0  0.06874116707361365 0.01454618473032123 0  0.003761917372881356 0.0239307468220339 0  0.003984374999999999 0.01125 0  0.003768503289473684 0.01392539576480263 0  0.001796875 0.0111328125 0  0.003761917372881356 0.008930746822033899 0  0.005 0.00625 0  0.003761917372881355 0.0210692531779661 0  0.06633928571428571 0.01410714285714285 0  0.006484375 0.01125 0  0.08364120589325512 0.01657288979763549 0  0.03576267476503373 0.0184116442851204 0  0.07370875846579374 0.0137848203678562 0  0.06964285714285715 0.01758928571428571 0  0.05520833333333334 0.01833333333333333 0  0.06491071428571429 0.01839285714285714 0  0.0510098951944636 0.01559941474766356 0  0.01786087179886325 0.0115702210443714 0  0.01972197383235524 0.01160576093166696 0  0.01804697593127788 0.01433503795474974 0  0.001644074528704677 0.01642892723865279 0  0.00125 0.03 0  0.001497685185185185 0.001267746913580247 0  0.07315451164202422 0.01643443118912983 0  0.001233906745910645 0.0140625 0  0.01162635071030191 0.01362229857939618 0  0.01528023503083844 0.01845923557506155 0  0.06625 0.02 0  0.07695012019230771 0.01624387078484555 0  0.03139091092855769 0.01320776147621796 0  0.03857339107781042 0.01675295051810485 0  0.001754993120977522 0.02590789105493891 0  0.002288757784711197 0.00412546923654445 0  0.07914382119690884 0.01404430049871201 0  0.001391810103286306 0.01257390899021902 0  0.0419501201923077 0.01614675005432421 0  0.001484375 0.007018229166666667 0  0.001484375 0.02201822916666666 0  0.048
[...]
<PointData  Scalars="concentration"> 
<DataArray  type="Float64"  Name="concentration"  format="ascii">8.4753501602660031e-01  1.0015156747268130e+00  9.9999999999999889e-01  9.9999999999999922e-01  -1.9387045606711581e-22  -2.7391240784586276e-22  -2.3736593048962790e-03  2.1438683323855262e-01  6.4424541420819059e-01  -1.1174835979968984e-04  9.9965229456231264e-01  9.6295928389922780e-01  7.1428565140245676e-02  7.4683091025065408e-03  9.9737714090419649e-01  9.0743601922103767e-01  1.3872225723885975e-01  9.8385626109261548e-01  3.1322594442544233e-02  8.8061572523315446e-01  1.7660807638447215e-01  9.9985167024846933e-01  -3.3114048318920761e-03  1.0868700401734674e-01  9.3576116977232127e-01  1.6258011932339175e-01  8.9849936195531788e-01  9.3713037380813241e-02  1.5362239256119530e-02  9.9332968504887098e-01  5.5474101401177894e-02  -2.7511283742202923e-04  1.0004899322495053e+00  5.4864400837099581e-01  5.4041726353466246e-01  9.4970090740541646e-01  5.4168050625611441e-01  9.7481969707246585e-01  5.5993311903673315e-01  5.4897156151984561e-01  4.3690098819610503e-03  9.9965033482008392e-01  5.7092874226566959e-01  6.0737083769346789e-01  1.9218108818764690e-01  8.6684279800029829e-01  4.4374203443386684e-01  5.5440214501615037e-01  5.4412774959643606e-01  -2.3369782803372924e-05  6.8461351227359490e-01  5.8287262959235275e-01  5.4124583029530582e-01  1.0000055809087025e+00  1.2978500712011126e-01  9.2264707281224057e-01  7.7040894115485059e-01  4.3921036389730661e-01  6.9023881486447347e-01  9.8233756344375389e-01  7.1522114796142755e-01  -9.5157750878244919e-07  1.0001114480816227e+00  -2.8430308120267409e-03  1.0000211599097961e+00  3.8249471303851729e-01  1.5231365729524016e-01  -1.7901000719587144e-02  8.2633008806771868e-01  2.3028187890748161e-01  2.4429785238762433e-01  7.4647873600939940e-01  3.2835768336935367e-01  -1.4906453269713103e-03  1.2498714988817171e-01  9.5784134464011450e-01  8.0204077387339201e-01  1.1052802417110248e-02  9.9999999999999856e-01  -7.6355760942699366e-23  9.9415539018587795e-01  1.3635016895831120e-01  7.8695125173395342e-01  9.8972233101318641e-01  8.3036419491823799e-01  9.7899737012499122e-01  8.5190251208585632e-01  9.9944253027075869e-01  9.4112865390522793e-01  1.5272080716644742e-03  2.6913234910246192e-01  4.5262634616249429e-02  1.0006144673158188e+00  8.7862224299623370e-01  3.4101565884878549e-01  1.6410626360584243e-01  7.3283096385650892e-01  8.8800933637472834e-01  8.1802782868904178e-01  2.3716327591582422e-03  1.1315004981876771e-01  9.7226327032001947e-01  5.8275864795977829e-02  1.7707847993686837e-01  8.7766644463085175e-01  2.6187340673824128e-01  2.9441505171558313e-01  2.6702079408604001e-01  1.0001592124393797e+00  9.9999556269120771e-01  1.0026216258163978e+00  9.7061785002392031e-01  1.7707002821538118e-01  1.5919028656542625e-01  4.3364303567461002e-04  8.4768943533445129e-01  8.0604250245422215e-01  -2.9262242920119788e-06  -1.3370039459008917e-05  9.9442993052605136e-02  9.9934781020165564e-01  2.0347637355555939e-01  1.0060607541359678e-01  2.8063426769842686e-01  9.4313427137349204e-01  7.7528447296051550e-01  2.4839857592020187e-01  8.1605227158949045e-01  9.8935802266283968e-01  9.3161921163410599e-01  8.3615829988292534e-01  9.9996368974044259e-01  -2.4117362857484180e-04  1.0000134852381390e+00  2.9496184260441230e-06  8.3083034084806939e-02  9.9866597739973439e-01  2.6018164477247942e-02  1.1868742295778748e-01  8.8311904914696515e-01  3.0229351670835858e-01  1.9842411139089453e-01  5.6850576426421141e-02  9.0120047264249947e-01  9.9962189443672900e-01  9.4007445575658988e-01  8.9365973293275247e-01  7.6749722982158897e-01  1.2641557193761640e-02  6.4916153828169043e-01  7.8012076040656815e-05  1.0020080184378672e+00  2.4971299650309028e-01  2.3660908490915109e-02  5.4426372813433332e-01  2.4178549789738710e-01  1.1763106371058388e-01  9.1816232232750816e-01  1.3333877240591371e-01  8.6346534281493426e-01  1.9016838000193395e-01  9.6324347019073264e-01  2.5765990136436273e-01  -9.9210466555801971e-03  4.7778456373491951e-01  9.2310193025527221e-01  4.1428383748176689e-01  5.7157771178755379e-01  5.4280534521664359e-01  1.6299556787992547e-01  9.9696302445300211e-01  9.0735458579130335e-01  2.5985961107368882e-01  8.3421108922150478e-01  1.2648706242418517e-01  8.1456488253380066e-01  8.8361517828291125e-01  6.8211351679638765e-02  1.9127668250790428e-01  2.1294224554071917e-01  7.1941473102120979e-03  8.5298654128194695e-01  6.3778353879687100e-01  6.2318427972605883e-01  5.3623070175780319e-01  8.8193634259616716e-01  8.6933672066071033e-01  1.0012717933374868e+00  8.1684037675480359e-01  4.3047541343665258e-01  6.3353252352511524e-01  5.4549195069619538e-01  1.0014464326871948e+00  1.0735683164589513e-02  5.1843788297116622e-01  6.6041272822405150e-01  3.4288630243643348e-01  9.9345472301541249e-01  1.2184240526369922e-01  2.2927963230970874e-01  2.5015649338196488e-01  5.5283443550701794e-01  5.6712196314650701e-02  9.4343876865666509e-01  -2.1904230161148607e-03  -8.8161764762766722e-04  5.5942678295273229e-01  9.8303283739766900e-01  1.0001882174149219e+00  7.6464591220398481e-01  -2.3177593107972534e-05  -5.6311833276053437e-06  2.9003110247892911e-05  -4.5668960311486255e-04  9.9892274423974070e-01  9.9997271899804818e-01  1.0000064281316794e+00  8.7444332249073298e-01  3.8444786688206656e-01  1.0001844455077951e+00  1.2812485088219672e-01  8.3287862328531817e-02  9.4807284259987912e-01  9.9111185815606639e-01  8.4543894721495938e-01  1.3873075312059796e-01  1.3746463244553025e-01  5.4199470109524805e-01  5.5681515740307630e-01  -7.2734353039295216e-06  9.9999651196528905e-01  9.4274881235425401e-01  1.6733698653272977e-01  3.8247787300200559e-01  3.7943046226990224e-01  9.1163067698746325e-01  8.9518633883372611e-02  1.1246561870465093e-06  1.0000027951085875e+00  7.0335973117603245e-01  1.5399806818768208e-01  1.1349079095041610e-01  1.4513507114553451e-01  3.8177817906358807e-01  8.2549096409991862e-01  7.8018783568173622e-01  6.7123001943697233e-02  5.7630338014663196e-01  6.0728922061690493e-01  9.6302941722462609e-01  9.7043020479897313e-01  9.9602897182881645e-01  9.6499164997679199e-01  9.2160094380447677e-01  6.9541424420723008e-01  1.9344825505873814e-01  7.6108552292025600e-01  9.6704162376795966e-01  8.1988416337026693e-01  2.5852558154332073e-01  3.8762753959602964e-01  1.6307271464158182e-01  1.9413886957180132e-01  9.8223880412145026e-01  4.5092941860724114e-03  6.3111833873205703e-01  9.8651200171256981e-01  9.9995116742327672e-01  9.9875879395396217e-01  9.9777896704249525e-01  9.9419187381797047e-01  6.1349329452997370e-01  7.1617589337459353e-01  7.3696151032843227e-01  6.2314043701288901e-01  2.5633556625258080e-01  9.1863564187267988e-01  8.7206434219212681e-01  2.1305655263560813e-01  3.4241488501365158e-01  7.2104806630116824e-01  8.4898044146018037e-01  1.0889010753208989e-01  4.8663949456335787e-01  1.0000134498922468e+00  5.0448348004366820e-03  1.1303328457709880e-01  2.5204414222387101e-03  -5.2462421393684427e-04  7.8134845869175018e-05  1.0002777317578970e+00  4.2968965150356353e-01  -2.0550682356949576e-03  6.9589094706453247e-01  9.5878749344120562e-01  3.9884086292010784e-01  8.1572267670296394e-01  9.0024899935000757e-01  8.7669863072422483e-01  6.3642966502978904e-01  1.2598447520840350e-02  1.4375901370535410e-02  4.1791312869794645e-01  9.8810981476504367e-01  1.0000000000000000e+00  1.3049004644047388e-06  7.0329248546581258e-01  1.4938606571455423e-01  1.7280179430437564e-01  1.0003181152148108e+00  9.0814642186371786e-01  6.8075159279003361e-01  2.3871469710111229e-01  8.1921353677623121e-01  1.0000093166428776e+00  1.9483344800368618e-06  4.3316566330260009e-01  -2.5415529107493590e-02  7.3412847657217684e-01  6.8231633188897261e-05  1.0003191573400267e+00  3.2115418489688502e-01  1.2896500744007486e-01  9.2963143986140562e-01  3.9735597751343471e-01  2.7616318934855411e-01  9.3953689457447842e-01  3.7234462657278466e-01  7.8251855033391715e-01  3.6657798144623427e-01  3.9415262993251410e-01  1.0707822056908470e-01  7.7442754738054387e-01  2.9329265760282436e-01  1.8674828413633557e-01  3.7549786042750589e-02  3.2145321997346082e-03  5.2375335925037778e-03  3.2060889503676110e-02  3.0399235222639037e-01  4.1841368860742950e-01  2.1160562921128584e-01  9.9998016853074412e-01  -5.6047557912895391e-06  1.4451513474450744e-04  4.8821126979139380e-02  9.9999621586194820e-01  3.1746757437074352e-01  2.3490246900048437e-01  8.7582892237452914e-01  7.5939386138419385e-01  7.8790583861182861e-01  8.8784427529617105e-01  8.6981912959352459e-01  1.0071234609873705e+00  7.5305015425826599e-02  3.9908663829543389e-02  7.8755864614197715e-02  1.0055500035905558e+00  9.9577707340847055e-01  7.3157716864273170e-01  6.9826277113218382e-01  9.1089312536087130e-01  9.1711576461849509e-01  3.6523224054981912e-01  9.9972130693148653e-01  8.9844324022788202e-01  9.9976022859616831e-01  1.0005209909875590e+00  9.9761137461057059e-01  6.6399421970890038e-01  7.7828191239830147e-01  6.1685246342728051e-01  5.1731361247920393e-01  3.1524718894616492e-02  1.9028263860386707e-01  4.4411479173230900e-01  7.7543412029033543e-01  8.5641246608767074e-01  6.5293288489421109e-01  1.5240162739076677e-05  9.4124983253109629e-01  2.9640260664211970e-01  1.8871175587642960e-01  2.1625988876537652e-01  1.0004271887840335e+00  8.6349861491504351e-02  1.0019090705505471e+00  8.0024004935120885e-01  6.8954341125886409e-01  1.0306621901383959e+00  4.4014822586038136e-04  2.7839359140114072e-04  8.6909296651390400e-01  -3.7413837057640137e-03  1.6821968452312688e-01  9.3127463262334276e-01  6.2667775440990525e-01  8.9893908752074148e-01  9.1859713130949827e-01  3.4086235114995123e-01  7.8115074651633709e-01  -1.4355387445263779e-03  2.2430208915188540e-01  9.9999781628954809e-01  -3.1195174720621530e-06  1.0000050683940409e+00  1.7307451786509051e-01  3.5944083959157930e-01  3.9629625843008859e-01  -5.0061446303610124e-04  6.6694454875573184e-01  9.5342471118708938e-01  -1.1227494963948329e-03  1.0254370926619838e+00  2.3355616440610211e-01  2.0502064429166267e-01  8.9633964088631402e-01  9.0281175401724445e-01  8.8614244538406728e-01  4.6674593667141398e-02  8.8247238977974951e-01  2.1928446851228464e-01  6.2632270635979745e-02  3.3968862020631943e-02  1.2019247726342601e-01  7.1765490342772920e-01  3.7787931622302490e-01  2.9319184659501223e-02  8.5827887167563455e-02  9.6869225065831199e-01  7.6012022854112615e-01  8.3157774231705694e-01  1.8854575178287028e-01  -3.5547627985117163e-03  7.9824930441989950e-01  9.0085923526142186e-01  9.8701581823148332e-01  8.7450105149937030e-01  8.9620886504698316e-01  1.6613452729396211e-01  3.8524328237484906e-01  2.8885296074661737e-01  4.5196445811457650e-04  7.2715851513764085e-01  3.6443650140847272e-02  9.5146513760410811e-01  9.9549933256269574e-01  8.9229331774617715e-01  8.7687007398113670e-01  9.5155508824267354e-01  9.9758407784469205e-01  1.5778360979846726e-01  9.8722725940135980e-01  7.0211272141025649e-01  1.4742084563476457e-01  1.4297172328504168e-01  1.0409148219977991e-01  8.6278215451585805e-01  9.9934769637640508e-01  8.9647131708618308e-02  5.5782252471574464e-02  9.7690475274227428e-01  1.9556261117318596e-01  1.8273340364081544e-01  1.5750730905096055e-01  9.4721142213752607e-01  9.7621229951385691e-01  1.0000267855649008e+00  6.6524306931207733e-01  1.3952666529024144e-01  1.5552047824342971e-01  9.9980104814331894e-01  7.5016329745861187e-04  9.9985850274425425e-01  -1.9138340185887385e-03  4.6250997014693983e-04  1.9644463998990534e-03  1.2621361120428637e-21  6.3707888018332072e-06  -2.1771483559446256e-06  1.0000000000000011e+00  1.2134846361648147e-21  2.5663301778141565e-03  1.0053594496475979e+00  1.0001099547661072e+00  4.1096882307451810e-01  9.9931471241790770e-01  3.8207596662883575e-01  1.0000020279340140e+00  9.9451240279321862e-01  2.0902455442046265e-02  1.0012267132933850e+00  2.2464412643954910e-02  1.0000076636126813e+00  8.3178724463312903e-01  9.9455118524997288e-01  9.2160591857074925e-01  5.4433086296992494e-01  3.7491826421352165e-01  2.3375506122598549e-01  1.4939848270036507e-01  1.1801840496240508e-01  2.3982988439441438e-01  1.2456583526965846e-01  9.6213081703397607e-01  7.5597936131384519e-02  9.3274254825592917e-01  8.5615307339637081e-01  1.9148502855387850e-01  7.4836957667415993e-01  9.4353699868091134e-01  8.6229103734803803e-01  4.3210946168520153e-01  2.1622373027789570e-02  1.9946930737885882e-02  2.7539366793953668e-01  4.7229121060007273e-01  8.6979505187457151e-01  3.2396777388561204e-01  2.0283414176059913e-01  2.9208289097733625e-01  5.7662968030710315e-01  1.0009506470359208e+00  8.0467404468548909e-01  9.8110302480990785e-01  8.9754062225736342e-01  8.5732883267230320e-01  1.2198988224413439e-05  8.6502185012588817e-01  4.0979375517893472e-06  1.0011348850415041e+00  9.2454246869746692e-01  5.7636138384362756e-01  4.0330670831050724e-01  1.2873777049701371e-01  2.5718221361911286e-01  4.1226915184672908e-01  9.9583008484730440e-01  8.1970879049489975e-01  7.2787834439657395e-01  9.9996710209366968e-01  5.3616296968889983e-02  2.8757516346056045e-01  4.5556729250421318e-01  4.2385095213662821e-01  3.2003137689391348e-03  1.8737094009104321e-03  -1.9340504224770461e-02  8.5231386946499277e-01  6.7590210785263904e-01  4.3498618803864114e-01  9.0997871578286649e-01  7.0707233335718389e-01  8.4051230297054236e-01  8.3908572367690970e-01  1.0531570984043913e-02  8.1363899473325973e-01  1.0024111823914830e+00  2.8035299703137984e-01  9.5118177452301902e-02  9.4509484375683739e-01  3.7913058984517395e-01  4.3007976911917895e-01  8.8181621814932343e-01  9.7332291769570523e-01  1.0680642341017751e-02  6.9393407334504820e-01  7.6539932695284529e-01  4.9978543140874160e-01  7.9102504298004706e-01  2.8526138076706348e-01  4.0614145655049166e-01  9.9999408845933779e-01  5.9433071140052585e-01  8.0613571636680703e-01  1.9501204622794122e-01  5.7354027083794756e-01  4.4740467166095033e-02  -2.4888448342825318e-05  2.5890355590691677e-01  1.5101023078226516e-01  3.0370141509074213e-02  9.7294087192990930e-01  9.9924722214238737e-01  8.1986005255118721e-01  9.5881963528365677e-01  4.6734167515346020e-01  8.9336539001238238e-02  5.0777502785115569e-01  -2.2391715213714413e-06  5.6101555533103926e-02  8.7682897121157599e-01  2.4253124285413627e-01  3.6097752357429291e-01  8.9008867492406585e-01  8.5359800893424168e-02  1.7990224119344536e-04  6.6179550466762849e-01  4.9959712811283974e-01  9.4108892591896165e-01  6.3831459725900452e-01  2.5739002795582405e-01  2.5515551716246893e-01  6.2412640687716729e-02  5.9299907641637595e-01  5.4321015352889412e-01  9.9842450916785608e-01  -3.0176532859315480e-05  -2.9458451470860660e-04  9.9972776775488759e-01  2.7301636772231741e-01  8.9875855307660857e-01  9.9425527333567254e-01  9.9965416438132337e-01  9.9867699441332525e-01  1.0011207732355063e+00  6.9608786530989519e-01  4.1929064648162273e-01  6.7189859637268612e-01  2.1235724451501778e-01  3.9272444941126111e-01  1.2613906677046624e-01  5.3895036978749877e-01  9.3698146531333137e-01  9.1665913972950952e-01  9.6478491659773025e-01  7.0706359696770775e-08  9.8708617029146140e-01  9.9999802187563747e-01  5.4306419869625799e-01  5.1031652086112367e-01  9.4782179141476364e-01  3.7972547648422000e-01  3.4803883648170320e-01  9.9948859067376850e-01  9.9997593128114892e-01  -7.0956959650294348e-03  9.8398978999223108e-01  9.8562127873449547e-06  1.0836701346717799e-01  2.8443715491680174e-02  9.9992905617585770e-01  9.9954416093125253e-01  1.3588941410712962e-04  9.0470135282219521e-01  9.5116324642412597e-01  9.8406730168224998e-01  4.4017267996037662e-01  7.1512911699103954e-01  9.9996344222240308e-01  1.0825255513442499e-04  5.2734073713672773e-02  5.1584031849793337e-05  1.0029397243473710e+00  1.0027547254768094e+00  1.9960796936126787e-01  4.0327093649773987e-01  7.0565933065202191e-01  2.9210603514234207e-01  1.9949806024930589e-01  2.0360224677707886e-01  5.3273518738441261e-01  3.8573527740106289e-01  6.6910591584264834e-01  1.0136115574543482e-01  2.5225179149427635e-01  1.6220637140947788e-01  9.4945724801264408e-01  6.5922023907847249e-01  8.5922042484810490e-01  6.3710258505447459e-01  4.6198903155013044e-01  1.8950671570737451e-01  1.8792869434223961e-01  2.5101230733987850e-01  2.8019305807359207e-01  -1.7908356254185940e-03  1.9718213799271380e-02  -1.2077082190573665e-03  9.1019897897318247e-01  9.0198184589034325e-01  7.9210837110222010e-01  7.5477653681271617e-01  9.3188642024801449e-01  8.9242205058320057e-01  6.6086184728748276e-01  9.2471136978085644e-01  8.3569781303807433e-01  7.8617351351037568e-01  5.9507797182449629e-01  1.0261500035612168e+00  9.7860598490348372e-01  4.8678565667933582e-01  8.2074209330797065e-01  7.2763567950388974e-01  5.8310579390360295e-01  7.9570394748797302e-01  8.5995556572473575e-01  7.3285540981840824e-01  8.4494554133378652e-01  8.3983254422641884e-01  5.6258514708979412e-01  9.1254943604640792e-01  5.4508753416522826e-01  6.0731527951897113e-01  1.8269943003528036e-01  9.2820767197321663e-01  6.5788070517964925e-01  4.8263001864678895e-07  6.4235988496319751e-01  6.9702322530823113e-01  7.8221046505988988e-04  4.3921560090847428e-01  9.9921648649474126e-01  9.8002889509955515e-01  9.2802267994588727e-01  -8.9219855145877738e-03  -4.3651972922773381e-03  8.2457264667011387e-01  1.6359823036683455e-01  9.4588761004800892e-01  9.6405488506933412e-01  3.1663100401553700e-02  2.4421340362808300e-01  2.0701328313162756e-01  2.6239511464707793e-01  1.4967026497195915e-01  1.0000041975301486e+00  5.2963952994831620e-01  4.0933571286015341e-01  7.1878446828611608e-01  6.5805801145731724e-01  3.7595518905389080e-01  3.9472375416288091e-01  6.5194862041132659e-02  9.2702735105541223e-02  2.1993405683998013e-01  1.0620880840386408e-01  2.2628949693144586e-02  9.1669246243546942e-02  1.0000046796649822e+00  6.4039283126430388e-03  1.1874914010971528e-01  1.2533230968712450e-01  2.8144042012028925e-01  5.4140380610402793e-02  7.3135754891172444e-01  4.3535010731153539e-01  8.3345428319319503e-01  2.4555863317849360e-06  4.8721390829513850e-05  4.4812321498504359e-01  6.3341427817528428e-01  -1.8496651559612501e-05  9.0903718125645327e-01  9.5794714000386760e-01  8.4912417829408660e-01  8.7028663923644570e-03  5.5079392893720271e-04  9.9998273877259525e-01  4.9490962932441918e-01  1.0009267044805554e+00  9.9299404374271671e-01  9.3537533852121180e-01  5.7628301485279276e-01  8.5422381147178872e-01  6.9902842554217870e-01  5.6903009741228654e-03  1.0001794917535465e+00  1.0000684347214746e+00  1.4563146843060242e-03  5.0281685703188728e-01  5.5251711230074213e-06  6.7666354400146327e-05  1.3716517111185544e-02  2.2312389255428361e-01  1.0000104641195151e+00  9.9827588051674732e-01  1.0000306451381442e+00  3.7145291321402435e-01  2.2848470832950085e-01  1.0013536185569278e+00  1.8164910970909573e-01  9.9996998164271167e-01  2.4528467137237178e-02  6.7700689981449416e-02  9.2022795659637224e-01  8.0465172687762543e-03  9.7991891756634342e-01  9.9682736277769068e-01  6.3934262371797168e-01  3.4746564683158276e-01  3.3463348193833051e-02  7.7178454377521499e-01  7.7327617607155563e-01  8.5267640196928129e-01  8.6670961473672214e-01  7.5063158685654130e-01  9.9997987137733824e-01  2.7286398860713201e-01  3.2285202659898221e-01  6.6124360845407271e-01  9.9976950882440618e-01  9.9976554124467432e-01  7.7067182072052842e-01  1.8181984651108507e-01  1.2467928322154754e-05  2.0160531539022819e-01  6.8463118275365176e-01  1.9228819037989761e-01  1.0949947199822865e-01  1.8099342525204787e-01  5.3263085451983849e-01  2.9609653938788671e-01  1.1053673230403457e-01  6.7743250686955594e-02  9.8478905086266597e-02  8.6180516302564936e-01  2.2726456725237470e-02  9.8977472306379577e-01  2.0391810090485293e-01  9.8992043576882505e-01  9.8332908342408576e-01  9.5589477288277735e-01  9.9832433524930353e-01  9.9672815055098418e-01  -5.2