<?xml version="1.0"?>
<VTKFile type="UnstructuredGrid"  version="0.1"  >
<UnstructuredGrid>
<Piece  NumberOfPoints="1079" NumberOfCells="1944">
<Points>
<DataArray  type="Float64"  NumberOfComponents="3"  format="ascii">0.08500000000000001 0.02 0  0.005 0.02 0  0.005 0.03 0  0 0.03 0  0 0 0  0.005 0 0  0.005 0.01 0  0.08500000000000001 0.01 0  0 0.015 0  0 0.0075 0  0 0.0225 0  0.04500000000000001 0.02 0  0.04500000000000001 0.01 0  0.025 0.01 0  0.025 0.02 0  0.065 0.02 0  0.065 0.01 0  0.035 0.02 0  0.035 0.01 0  0.07500000000000001 0.02 0  0.07500000000000001 0.01 0  0.015 0.02 0  0.015 0.01 0  0.05500000000000001 0.01 0  0.05500000000000001 0.02 0  0.07000000000000001 0.01 0  0.07000000000000001 0.02 0  0.05 0.01 0  0.03 0.01 0  0.03 0.02 0  0.04000000000000001 0.01 0  0.01 0.01 0  0.02 0.02 0  0.06 0.015 0  0.08500000000000001 0.015 0  0.05 0.02 0  0.07250000000000001 0.015 0  0.04000000000000001 0.02 0  0.03750000000000001 0.015 0  0.0525 0.015 0  0.02 0.01 0  0.01 0.02 0  0.0275 0.015 0  0.0125 0.015 0  0.08000000000000002 0.01 0  0.08000000000000002 0.02 0  0.0325 0.014375 0  0.04291666666666667 0.015 0  0.065 0.015 0  0.005 0.005 0  0.005 0.015 0  0.02208333333333334 0.015 0  0.07791666666666668 0.015 0  0.005 0.025 0  0.06 0.01 0  0.06 0.02 0  0.01729166666666667 0.01572916666666667 0  0.04770833333333334 0.01427083333333334 0  0.06875000000000001 0.01625 0  0.008750000000000001 0.01625 0  0.05625000000000001 0.01625 0  0 0.00375 0  0 0.01875 0  0 0.01125 0  0 0.02625 0  0.08145833333333334 0.01354166666666667 0  0.0675 0.01 0  0.0075 0.0125 0  0.0625 0.0175 0  0.0575 0.0125 0  0.0625 0.0125 0  0.08207465277777778 0.01707465277777778 0  0.06767857142857144 0.01321428571428571 0  0.0175 0.01 0  0.01875 0.01291382575757576 0  0.0475 0.02 0  0.04564168086314595 0.01679860519591141 0  0.00296875 0.0125 0  0.0025 0.03 0  0.0025 0 0  0.00296875 0.0175 0  0.01521990740740741 0.0132349537037037 0  0.0497800925925926 0.0167650462962963 0  0.0325 0.02 0  0.03474264705882353 0.01674632352941176 0  0.03750000000000001 0.02 0  0.03025735294117647 0.01674632352941176 0  0.0275 0.02 0  0.0525 0.02 0  0.0125 0.01 0  0.04020833333333334 0.01322916666666667 0  0.03750000000000001 0.01 0  0.0225 0.02 0  0.02479166666666667 0.01677083333333333 0  0.07520833333333335 0.01322916666666667 0  0.07250000000000001 0.01 0  0.07520833333333335 0.01677083333333334 0  0.07250000000000001 0.02 0  0.04020833333333334 0.01677083333333333 0  0.0225 0.01 0  0.02375 0.01262152777777778 0  0.04250000000000001 0.02 0  0.04250000000000001 0.01 0  0.07750000000000001 0.01 0  0.07750000000000001 0.02 0  0.05036151960784314 0.01294424019607843 0  0.0705560064935065 0.01284699675324675 0  0.05458333333333334 0.01291666666666666 0  0.0021875 0.024375 0  0.005 0.0275 0  0.01125 0.0175 0  0.01463848039215686 0.01705575980392157 0  0.01 0.01375 0  0.03625 0.0125 0  0.0021875 0.009375 0  0.05375000000000001 0.0175 0  0.07125000000000001 0.0175 0  0.005 0.0025 0  0.0021875 0.005625 0  0.02655220103578155 0.01234889948210923 0  0.002187499999999999 0.020625 0  0.02979166666666667 0.01302083333333333 0  0.0525 0.01 0  0.07895833333333334 0.0125 0  0.01994277885235332 0.01704213007736944 0  0.07934656179076068 0.01733823814273861 0  0.04505722114764669 0.01295786992263056 0  0.06625 0.0175 0  0.006250000000000001 0.0175 0  0.05750000000000001 0.02 0  0.05875000000000001 0.0175 0  0.005 0.0225 0  0.005 0.0075 0  0.002375 0.027375 0  0.002375 0.002625000000000001 0  0.0475 0.01 0  0.0175 0.02 0  0.0325 0.01 0  0.03375 0.0121875 0  0.04261299435028249 0.01749205508474576 0  0.08500000000000001 0.0125 0  0.08250000000000002 0.01 0  0.02121963399965531 0.01224824108143494 0  0.0675 0.02 0  0.0125 0.02 0  0.02720152243589744 0.0175 0  0.03715165441176471 0.0175 0  0.08500000000000001 0.0175 0  0.0275 0.01 0  0.0025 0.0149560546875 0  0.0075 0.01 0  0.0075 0.02 0  0.06526785714285716 0.0125 0  0.01281031447005516 0.0125 0  0.0625 0.015 0  0.06 0.0125 0  0.05750000000000001 0.01 0  0.0625 0.02 0  0.0625 0.01 0  0.08250000000000002 0.02 0  0.04260103740101855 0.01252623201412851 0  0.02240052247582197 0.01750164767101344 0  0.07293583459427785 0.01238479732953041 0  0.005234374999999999 0.012265625 0  0.03528131980640358 0.01454684009679821 0  0.0325 0.01760027210036557 0  0.02532593822924343 0.01428227733767297 0  0.08009952069819683 0.01527145502895417 0  0.01987282359856536 0.01482587683689801 0  0.04828232595121382 0.01210233572595705 0  0.01671767404878618 0.01789766427404295 0  0.05125 0.01829007549029352 0  0.05247215456215357 0.01288882122882024 0  0.07338729919678716 0.01799385040160642 0  0.03838729919678716 0.01200614959839357 0  0.07717482110586968 0.01780301674207099 0  0.04771860040890012 0.01773306039388322 0  0.03125 0.01160380747126437 0  0.06875000000000001 0.01154265873015873 0  0.07625000000000001 0.01154065860215054 0  0.01625 0.01153997817696946 0  0.068125 0.018125 0  0.05437500000000001 0.015625 0  0.066875 0.015625 0  0.07039794950204951 0.01494384850614853 0  0.05687500000000001 0.018125 0  0.006875 0.015625 0  0.008749999999999999 0.01833333333333333 0  0.010625 0.015625 0  0.05625 0.01416666666666667 0  0.05812500000000001 0.015625 0  0.0449088595298192 0.01494528408816316 0  0 0.016875 0  0 0.013125 0  0.04962452342047931 0.01478673066448802 0  0.0153754765795207 0.01521326933551198 0  0.0771774565913315 0.01322498191305479 0  0.01857756431135545 0.01840228599899994 0  0.04642243568864456 0.01159771400100006 0  0.08125000000000002 0.01155637254901961 0  0.08317650804863432 0.0118234919513657 0  0.08288217288011697 0.01511353252923977 0  0.02837253504384828 0.0117177464035174 0  0.03896057962520807 0.01831163685754031 0  0.01125 0.0114244162490927 0  0.00935910490099115 0.0119067901980177 0  0.02946078431372549 0.01495404411764706 0  0.02875 0.0185829434466942 0  0.002968749999999999 0.0225 0  0.064375 0.016875 0  0.00296875 0.0075 0  0 0.001875 0  0 0.005625 0  0 0.009375 0  0 0.020625 0  0 0.024375 0  0 0.028125 0  0.06062500000000001 0.01812500000000001 0  0.008303571428571429 0.01446428571428572 0  0.01375 0.01865917058160413 0  0.05137790313978056 0.01143372888932909 0  0.04125000000000001 0.01131513063942604 0  0.04101690263896279 0.01844430285842771 0  0.02399563533148224 0.01844349395710867 0  0.08125000000000002 0.01868815426145731 0  0.05354684380692146 0.01145463537600848 0  0.01699195823639423 0.01315138909884649 0  0.07598357371794873 0.015 0  0.04098357371794872 0.015 0  0.003744047619047619 0.00375 0  0.003344630281690141 0.02580853873239437 0  0.04625 0.0187354532243972 0  0.06388392857142858 0.01138392857142858 0  0.06375 0.01375 0  0.05875 0.01375 0  0.06375 0.02 0  0.00622802734375 0.01372802734375 0  0.003630681818181818 0.001369318181818182 0  0.003630681818181818 0.02863068181818182 0  0.06125 0.01625 0  0.06125 0.01125 0  0.05625000000000001 0.01 0  0.05875 0.01125 0  0.06125 0.01375 0  0.08337864763241221 0.0183786476324122 0  0.05213634138653413 0.01674432930673294 0  0.04375000000000001 0.01 0  0.07424178685897437 0.01529258578431373 0  0.03924178685897436 0.01529258578431372 0  0.03410139294454583 0.01843406022904556 0  0.03089860705545417 0.01843406022904556 0  0.02094160484316717 0.01850229584291991 0  0.04375000000000001 0.02 0  0.04437042160883325 0.01820701498672512 0  0.04816311705429156 0.01600061344661149 0  0.07151224904251052 0.0114127410511319 0  0.04395528506193162 0.01639387970349481 0  0.0128750358694518 0.0167500179347259 0  0.02855808448399799 0.01642839899839741 0  0.02812690373330794 0.01340955081400569 0  0.08358500641945087 0.01351822349116885 0  0.05590277777777778 0.01173611111111111 0  0.06683110430364615 0.01164926404662283 0  0.02573206694914602 0.01842532451809762 0  0.01438126661842046 0.01166701193099454 0  0.02384283211216029 0.01526549696571563 0  0.03625 0.02 0  0.004609375000000001 0.0182421875 0  0.003398437500000001 0.01943359375 0  0.001728307845744682 0.01894718251329787 0  0.004377805359085963 0.01656966216675735 0  0.04649673309852075 0.0153889662370871 0  0.03615513600614297 0.01592654988586041 0  0.03316985071935832 0.01598763605018279 0  0.03110111603888768 0.01529816275177977 0  0.01370614113484869 0.0138804542047638 0  0.04930041102671841 0.01842260568883502 0  0.07875000000000001 0.02 0  0.0745395359848485 0.01165101111925709 0  0.03860755698543604 0.01373741558556884 0  0.02605038706571737 0.01573944002207753 0  0.07559826163500957 0.01841729376139847 0  0.04437500000000001 0.01149157931286774 0  0.06874116707361365 0.01454618473032123 0  0.003761917372881356 0.0239307468220339 0  0.003984374999999999 0.01125 0  0.003768503289473684 0.01392539576480263 0  0.001796875 0.0111328125 0  0.003761917372881356 0.008930746822033899 0  0.005 0.00625 0  0.003761917372881355 0.0210692531779661 0  0.06633928571428571 0.01410714285714285 0  0.006484375 0.01125 0  0.08364120589325512 0.01657288979763549 0  0.03576267476503373 0.0184116442851204 0  0.07370875846579374 0.0137848203678562 0  0.06964285714285715 0.01758928571428571 0  0.05520833333333334 0.01833333333333333 0  0.06491071428571429 0.01839285714285714 0  0.0510098951944636 0.01559941474766356 0  0.01786087179886325 0.0115702210443714 0  0.01972197383235524 0.01160576093166696 0  0.01804697593127788 0.01433503795474974 0  0.001644074528704677 0.01642892723865279 0  0.00125 0.03 0  0.001497685185185185 0.001267746913580247 0  0.07315451164202422 0.01643443118912983 0  0.001233906745910645 0.0140625 0  0.01162635071030191 0.01362229857939618 0  0.01528023503083844 0.01845923557506155 0  0.06625 0.02 0  0.07695012019230771 0.01624387078484555 0  0.03139091092855769 0.01320776147621796 0  0.03857339107781042 0.01675295051810485 0  0.001754993120977522 0.02590789105493891 0  0.002288757784711197 0.00412546923654445 0  0.07914382119690884 0.01404430049871201 0  0.001391810103286306 0.01257390899021902 0  0.0419501201923077 0.01614675005432421 0  0.001484375 0.007018229166666667 0  0.001484375 0.02201822916666666 0  0.048
[...]
<PointData  Scalars="pressure"> 
<DataArray  type="Float64"  Name="pressure"  format="ascii">-1.8714433797848223e-04  4.7727799063972821e-02  3.0369633385977882e-02  1.5735110743280385e-02  1.8439845296241389e-02  7.5827717672393834e-03  4.7515819889767684e-02  -1.8005905259954320e-04  4.7500253026789424e-02  4.9821828088056561e-02  5.0331848639737595e-02  2.3312806814956354e-02  2.3315004606154842e-02  3.4998004176302701e-02  3.4997703347094074e-02  1.1616927321980077e-02  1.1623225224633273e-02  2.9154265844709277e-02  2.9150806246284727e-02  5.7634378506147936e-03  5.7818596307637766e-03  4.0844869676714753e-02  4.0830199432251052e-02  1.7446525342457775e-02  1.7460071864556323e-02  8.7011447064857181e-03  8.7008696070109536e-03  2.0391964998511512e-02  3.2073083886539566e-02  3.2074699226573730e-02  2.6236214038806948e-02  4.3759335181621492e-02  3.7915624586846101e-02  1.4543309950012687e-02  -2.6906493569568690e-19  2.0384782310948549e-02  7.2359954557290060e-03  2.6245666915500954e-02  2.7691949506892740e-02  1.8925598339235024e-02  3.7914435359487061e-02  4.3803678105908142e-02  3.3533496395134171e-02  4.2292723436368751e-02  2.8499604567932277e-03  2.8271847248788552e-03  3.0612911056251944e-02  2.4526289434643318e-02  1.1619838839343404e-02  5.1505268899899745e-02  4.6412826258558491e-02  3.6697246163467125e-02  4.0705151772789626e-03  5.2221170177819236e-02  1.4539735851849443e-02  1.4528359386108719e-02  3.9495374197964832e-02  2.1725275792204977e-02  9.4284382518941331e-03  4.4476635103007527e-02  1.6735631415003057e-02  5.1419430994501927e-02  4.8304653134375090e-02  4.8097474684552326e-02  5.2107851815564002e-02  2.0076157464485210e-03  1.0157048979661765e-02  4.5200966010567091e-02  1.3080748328112662e-02  1.6004386606977238e-02  1.3080882307553318e-02  1.6464514215370747e-03  1.0054281731055751e-02  3.9373528539691893e-02  3.8643590598946398e-02  2.1825259134983861e-02  2.2933382435315744e-02  4.7389643441512613e-02  6.9173744709589008e-02  6.8257801153664394e-02  4.7497191226608941e-02  4.0703860750976997e-02  2.0513777618498114e-02  3.0602165721734249e-02  2.9303132175647176e-02  2.7684157992084724e-02  3.1923101736979875e-02  3.3529119754961589e-02  1.8926643977561219e-02  4.2297998527053800e-02  2.6109456263743318e-02  2.7698184547263773e-02  3.6449917216926191e-02  3.5115347051367311e-02  5.6530095419063831e-03  7.2364278345326549e-03  5.6523213401656752e-03  7.2170243459463539e-03  2.6110155688212195e-02  3.6455196778814314e-02  3.5724672583731340e-02  2.4768192492190512e-02  2.4781090609567607e-02  4.3425371962078551e-03  4.3188597865007399e-03  2.0175283400580068e-02  8.3733696039563175e-03  1.7708612258942054e-02  5.1524079973476321e-02  5.4530593901879990e-02  4.3030981705077243e-02  4.1047370220552597e-02  4.3743503090530322e-02  2.8420820382904406e-02  4.8793423373979274e-02  1.8196117764084630e-02  7.9665053460459649e-03  5.3425389028864428e-02  5.0910487820008225e-02  3.4087731818511331e-02  4.9126356268727162e-02  3.2194559063291557e-02  1.8914084019759466e-02  3.4579335241949477e-03  3.7946980669743703e-02  3.2327296641898283e-03  2.3274726862167652e-02  1.0889731699525673e-02  4.5978045838383941e-02  1.6021348282717281e-02  1.5275601178101943e-02  5.0302734263104491e-02  4.9811944216633763e-02  5.4088129800292706e-02  5.3023269151449205e-02  2.1847423522212622e-02  3.9349645940485227e-02  3.0612673901903687e-02  2.9884008893690955e-02  2.4704027882960666e-02  -5.6040768700201107e-06  1.3903342526174977e-03  3.7202107374468905e-02  1.0147984892690439e-02  4.2307151099611279e-02  3.3707907527445811e-02  2.7896199925501571e-02  -5.1409494138232675e-06  3.3515322837106426e-02  4.7253066334180249e-02  4.5260341091374626e-02  4.5311822004133161e-02  1.1462940397670165e-02  4.2109737123060820e-02  1.3081396703267512e-02  1.4543470558517317e-02  1.6003884062757261e-02  1.3072887711614335e-02  1.3055255259178073e-02  1.3962936657795633e-03  2.4711142596768810e-02  3.6511731748079611e-02  6.9815234930654148e-03  4.6509183110699660e-02  2.8988059981220497e-02  3.0612610797622015e-02  3.4803604895233209e-02  2.7985269941292273e-03  3.7988010480005795e-02  2.1389853372899361e-02  3.9831201189152794e-02  1.9655125894855911e-02  1.8941651805325040e-02  6.7156729472048872e-03  2.7172924897690569e-02  4.5032672906782662e-03  2.1716367235054285e-02  3.1341880280786300e-02  9.4286496338201568e-03  5.0439845011314103e-03  4.0102191425643981e-02  9.7939776813650570e-03  1.7830533841740669e-02  1.0524127624521758e-02  8.4650664204364238e-03  1.6373322282733235e-02  4.5508687226131717e-02  4.4519585907503309e-02  4.3386107409087701e-02  1.6735005310887101e-02  1.5639692262400823e-02  2.3361647033071250e-02  4.7719018165281658e-02  4.7630389949307031e-02  2.0605426016345692e-02  4.0614610934595875e-02  4.5018598971078138e-03  3.8742593060722974e-02  2.2476408882145783e-02  2.1141087463956735e-03  9.8807465944252058e-04  1.1953614211870952e-03  3.3022547547656683e-02  2.6839944780390531e-02  4.3021406713444295e-02  4.4124304384495855e-02  3.2388110168906734e-02  3.2802462389572982e-02  5.0303934469276633e-02  1.1984944264210344e-02  4.9828848466258104e-02  5.1215587453209241e-02  5.0799988382951126e-02  4.8890617780242687e-02  4.9223589015385420e-02  5.1383428379954105e-02  5.1560155172782583e-02  1.4177802183817888e-02  4.4711730731578130e-02  4.1570605374210243e-02  1.9580565564907979e-02  2.5501359577462804e-02  2.5638470066440124e-02  3.5579145031229595e-02  2.1112887746228470e-03  1.8314969473019988e-02  3.9669736822833819e-02  5.1997608057121267e-03  2.5656429809848284e-02  5.2404813302981669e-02  5.2801790968791611e-02  2.2576614630368745e-02  1.2271461444414640e-02  1.2350359591839999e-02  1.5273902878299554e-02  1.2339751738802406e-02  4.5848154147714142e-02  5.6628479110161598e-02  5.7467182649274161e-02  1.3812421220052981e-02  1.3811513572384857e-02  1.6741265308735116e-02  1.5273564523810916e-02  1.3812412569188730e-02  8.5727794854750892e-04  1.9137984613515204e-02  2.4026321746670000e-02  6.2176556424110106e-03  2.6674412703949331e-02  2.9676910702787770e-02  3.1550440451514714e-02  3.7364171380489225e-02  2.4031861977701536e-02  2.3677174729491442e-02  2.1458889465445420e-02  7.8143738545983551e-03  2.3919118461521019e-02  4.2078103802187294e-02  3.2915435377530486e-02  3.3167156507275100e-02  7.8995797342266679e-04  1.6937057017853717e-02  1.0548243473479366e-02  3.4567161284106501e-02  4.1191747009441622e-02  3.5669661228622779e-02  2.8436921279587551e-02  4.7065449146905365e-02  4.8167991566142217e-02  4.8304398152526289e-02  4.6810402196633065e-02  2.2433386555231291e-02  2.8477935064344293e-02  3.0221605327919846e-02  3.1430021257054977e-02  4.1587784389740270e-02  2.0792835904805608e-02  3.5791797349229281e-03  6.0435035542293191e-03  2.7044627529517255e-02  3.4380293621405655e-02  5.4234292259427684e-03  2.3673897915875187e-02  9.4335041703617738e-03  5.1341974577896715e-02  4.7410322402224626e-02  4.6917977029015470e-02  4.8044581006514223e-02  4.8870297187599124e-02  5.0626523257688225e-02  4.9228054057528177e-02  1.0837002519920152e-02  4.5894808790399116e-02  7.5711317484088321e-04  2.8709401484657334e-02  6.5294591396985744e-03  8.9069319960752603e-03  1.7343792805725903e-02  1.1671241307490910e-02  1.9795908737544120e-02  3.9162894337695098e-02  3.8075919965549723e-02  3.9054084029524427e-02  4.7555411944069682e-02  5.3666510832843066e-02  5.1934081883630981e-02  6.8528764772713890e-03  4.7472963897938480e-02  4.2799946755167358e-02  4.0672124042633186e-02  1.0900367711028468e-02  4.6347410768658405e-03  3.1260488615308710e-02  2.7065363044221937e-02  5.2413347860510377e-02  5.1778212744703581e-02  3.3540144896732280e-03  4.7671880523788492e-02  2.5091440528581189e-02  5.0099494293828713e-02  5.0016563392739050e-02  2.0996009377226552e-02  2.0547810413856119e-02  4.0225162080372780e-02  1.9542412707319008e-02  2.2366375088403286e-02  3.8854534624590077e-02  2.3961537895934536e-02  3.7388085301044476e-02  2.5091358189028044e-02  1.8333133178508182e-02  2.6318840458067573e-02  4.1476872584408873e-02  3.7291965902063968e-02  3.6524854968478480e-02  3.4955528808411247e-02  3.5727017384702686e-02  3.4272784135277054e-02  3.6387521680320646e-02  9.2199535712174166e-03  7.8351373453123419e-03  4.1432872128937485e-03  5.0876867493599279e-02  5.1030423948157787e-02  4.9342517915804324e-02  3.2187705852978539e-02  5.2840777350969113e-02  3.4005082003343221e-02  2.9208747662775005e-02  8.4000699779190995e-03  1.0159052324459919e-02  1.7465843477241720e-02  1.0524067910933752e-02  7.4597731115128253e-03  4.3887081641123801e-02  2.9091267067537001e-02  2.8404284892292738e-02  2.7915408137884550e-02  4.5109748786054567e-02  4.6095506965981740e-02  1.4665282958332547e-02  1.1254656153665518e-02  1.5640271407615598e-02  1.8807003575515662e-02  2.8235898375962964e-02  4.3031061423191880e-02  1.2716660164078016e-02  4.3570321617216745e-02  4.2428323383624421e-02  4.5507867125612764e-02  7.8667911587883763e-03  1.6005752601680356e-02  1.9754895849950914e-03  2.9811024322379136e-02  4.4478077619018765e-02  8.6250228058163906e-03  1.7545844547635126e-02  2.4247104574393096e-03  3.2132203763562046e-03  3.4962219210109566e-03  5.1229415824923984e-02  1.8196675050658324e-02  2.6405012279769637e-03  3.5539340320687746e-03  2.9686052683873900e-03  4.0094325644418144e-02  2.1116119820679638e-02  4.7958438825018310e-02  3.0973135973177628e-02  8.6418257550196168e-03  4.6157881802104811e-02  4.4484130615190513e-02  4.4863086200930422e-02  3.5912801044918924e-02  3.8643918793945506e-02  3.4785719432645849e-02  1.6740862394074484e-02  1.2350447396159498e-02  9.4398603509566990e-03  1.3817284789723425e-02  3.5883504282855756e-02  2.2145261870331598e-02  4.3441637953937552e-02  2.7702010114166311e-02  5.1818734152136170e-02  5.1701614199946830e-02  5.4575968289432938e-02  6.4938630962715436e-03  4.0160744755999719e-02  3.1789013619272090e-02  4.8125368444199818e-02  4.4079719106406297e-02  2.4404911117432114e-02  3.7184004213237073e-02  4.7196383712356842e-02  2.7716423949685244e-05  3.8075022473972749e-04  1.3473248792645049e-02  1.4883630076099117e-02  6.5092283973160244e-03  2.6958335217303377e-02  9.1552920353406477e-03  3.0482400396968503e-02  3.0543817282641009e-02  2.9898216494047319e-02  3.7876581764083893e-02  3.8728711974278608e-02  1.6021917741250103e-02  3.3715582555102194e-02  2.4452470916007284e-02  2.7980281402304432e-02  2.7746048805851270e-02  3.6679124216352804e-02  6.7322854862276573e-03  4.1926580367085950e-02  3.3643334659818273e-02  3.4388878444879381e-02  3.3538367501855702e-02  2.8604795586654110e-02  4.2696461432933125e-02  1.1540065942027977e-02  1.1541431868682612e-02  1.0758358307677780e-02  4.8553977750637897e-02  1.8446168805259133e-02  4.7301535780707331e-02  3.7229733575824452e-02  3.6309919434396057e-02  7.9610453713961169e-03  5.0516925392569542e-03  2.1105301593986336e-02  3.4271403066470169e-02  7.9735443823040972e-03  2.9878303778379266e-02  1.3081331937157843e-02  1.0881021241888235e-02  1.2352743939808652e-02  1.8206519861382473e-02  2.1027918890124488e-03  3.5715939069860238e-02  1.9653930612448554e-02  2.5499136900786847e-02  2.6957757080856029e-02  2.1057562681358307e-03  5.0420899522438580e-03  9.4289475530763313e-03  1.9655402096146236e-02  2.5504190331340718e-02  5.1194114120212929e-02  -5.0312305104332317e-07  1.6004595583103819e-02  1.3082576220648299e-02  4.1569748411720488e-02  4.3021395730363073e-02  4.4526552130829435e-02  4.0102295869589757e-02  4.9014047550118081e-02  4.1549708939926246e-02  6.4238261857292492e-02  5.2464743368134156e-02  5.5016240396504358e-02  6.3063521579090620e-02  5.3955560417105863e-02  4.6013173516272786e-02  4.6423196446164598e-02  4.9403306961949271e-02  3.1456590803018267e-07  3.7188245234623198e-02  1.3081325441544377e-02  5.3317552435136188e-02  3.2799386733221421e-02  3.2810505701907272e-02  3.8640833384252893e-02  3.1336359831424743e-02  5.6635074540574641e-02  3.4864015850998713e-05  3.1356142980057192e-02  1.8077640587821454e-02  1.3812376601185020e-02  1.4543244698462779e-02  1.5273606728501993e-02  1.4543749351732051e-02  1.5270950340098361e-02  1.3812837886456500e-02  1.3842443780883429e-02  2.2595630706582565e-02  2.2575311841741903e-02  1.5278442855383193e-02  4.0280660072205345e-04  2.5458700295765326e-02  3.9395688635118610e-03  2.1481245803438180e-02  2.5435878337835754e-02  2.2746143766066620e-02  4.6473105767594267e-02  3.5664555863023154e-02  1.6978264596468735e-02  1.0146243806967783e-02  6.1421181074149600e-03  1.3924765522765851e-03  2.3975974717696434e-02  7.6581778353799713e-03  1.7093210158176771e-02  4.8722054999294516e-02  4.7474466695649094e-02  3.0841324364991794e-02  2.9928546304237146e-02  3.9886059971410764e-03  5.0274730997098657e-02  4.7854288866358684e-03  5.3603957190981842e-02  4.8869373740617394e-02  3.2513866726416894e-02  1.6329496308672767e-02  8.7564964756736627e-03  1.7600181228959989e-02  1.2168753805346382e-02  2.6744843422722127e-03  3.8048745686580357e-02  1.9823894719762244e-02  4.6926644720910550e-02  5.1682078387859397e-02  4.1446827178958326e-02  6.3337457803015421e-03  5.9262881774861179e-03  2.6440058938640411e-02  4.6653149384079717e-02  4.5860522215028024e-02  4.7015412994486590e-02  2.1078488737049306e-02  2.9120745794150041e-02  1.3763839043508606e-03  3.1352341783197207e-02  3.5042234314416179e-02  1.2427058124833442e-02  1.6912294311447456e-02  3.7019453239039907e-02  6.0592991995259424e-03  3.9391755190127442e-02  2.1632554541132453e-02  2.1482009707631110e-02  3.9525046874832478e-02  7.1948731448134582e-03  4.3235796261225971e-02  2.2373348218485755e-02  2.7339587161759625e-02  4.2778566814323529e-02  2.8057102932996900e-03  5.0319254192990994e-03  2.2030888999235998e-03  3.8039078657833153e-02  3.8244479886958352e-02  4.5357606304537217e-02  5.7796325439244796e-02  9.8410336915902528e-03  7.3135356983867385e-03  2.6677320982249359e-02  4.5895032583401711e-02  2.9710200845791259e-02  5.0662049168852905e-02  2.9849385399886519e-02  1.8947448813065034e-02  3.4342604802582284e-02  3.2181491445990661e-02  4.0084937512586211e-02  1.5196914037707758e-03  2.5052748912205262e-02  4.6350515577070345e-03  2.3060571971457174e-02  4.1162149166809464e-02  5.5679684403911661e-02  2.7321351529329758e-02  6.8649734968198508e-03  3.5334021722281880e-02  3.8617226544540306e-03  2.0242139617331800e-02  4.5038818441378178e-02  4.7995427200040595e-02  1.3262486691563403e-03  6.0827698831491151e-04  2.0019650571860077e-02  3.0742993420037661e-02  1.8324939865203751e-02  1.9558549911030138e-02  2.6596050744472691e-02  9.0404476861003814e-03  3.7373863614035732e-02  4.1630217626243346e-02  5.0479832377946995e-02  4.9591432412062195e-02  5.0583556068489646e-02  4.2208282898074038e-02  1.1253128301170248e-02  4.6511093275714330e-02  4.4112612102885994e-02  4.4951462902264108e-02  4.4498312513913799e-02  6.2295204031364787e-03  5.2013133770571502e-03  2.7236795619291994e-02  2.0728764924718271e-02  1.8937791777841072e-02  3.0924713554057202e-02  2.8416765130234983e-02  1.9290752342964283e-02  2.6222231661404524e-02  2.6182449414039209e-02  5.1514260607578410e-02  4.0494981746660566e-02  2.9260033059447181e-02  7.8363761970277543e-03  3.4260115809677839e-02  3.3107443425896409e-02  2.7638217764430557e-02  3.2587497837912996e-02  3.8277350620226899e-02  4.9461769817506510e-02  4.7736550187805558e-02  3.0249046501821055e-02  5.1633928845678932e-02  3.1810775089676016e-02  3.1705848596660390e-02  5.0023334097632224e-02  4.9614972168629881e-02  4.9573018270562437e-02  2.3037711772506648e-02  2.3188782056231375e-02  3.9176911269942653e-02  3.1207137508033965e-02  2.4488353371834519e-02  5.0991354262329168e-02  4.9230301242219873e-02  2.8516518583592124e-02  4.4122880808063772e-02  4.7871747475526465e-02  4.7904475723158889e-02  3.5736930834177815e-03  2.0168498649039690e-02  3.6225816049770210e-02  1.9417842586857636e-03  2.4790411597922371e-03  1.7347795369113479e-03  2.3945587390265543e-02  2.3377629163501577e-02  2.2995996586957800e-02  2.0085338116385420e-02  9.7091966247136521e-03  9.7941825468268722e-03  4.7566968273764783e-02  2.0392470708879968e-02  4.0944196555668902e-02  4.0006671887380718e-02  2.1147550391301898e-02  4.6781659999883922e-03  5.5685800182313982e-03  5.5213512935926180e-03  4.9579616877289305e-03  3.9737441787467243e-02  4.0625394248635822e-02  4.0466287224662841e-02  2.7309277949354532e-02  1.2139298563871911e-02  1.4178041435385732e-02  1.2568685348587526e-02  4.3904820320191808e-02  9.7943985024173015e-03  1.1802490172538186e-02  1.6372460588606499e-02  1.0341370237829396e-02  9.6112454602969542e-03  1.8382042405722540e-02  4.5556843575508779e-02  4.3392424344866135e-02  1.5636931619175145e-02  4.4912303940517921e-02  1.0706833036241176e-02  1.1071950252827905e-02  1.1437017643537609e-02  1.5824588729909370e-02  1.5274552164500809e-02  1.4697197675719047e-02  1.3658827095380412e-02  1.5131254927645586e-02  1.4369222330668308e-02  3.3609357763613045e-03  4.8309408451661619e-04  2.2002880161461881e-02  1.7103015437253458e-02  4.0712293569857491e-03  2.6137165740124910e-02  3.2955380717900634e-02  3.1981634298068010e-02  4.3534564546603489e-02  3.3087536875923584e-02  3.6875060401052165e-02  3.8443117600024918e-02  2.9197852707904825e-02  4.4663228826430347e-02  4.2450015845483392e-02  3.6192702160412226e-03  9.0646865498242163e-03  3.5574843616659843e-02  3.5019205437264840e-02  3.0978032010641771e-02  1.5584303419402723e-03  9.8563752169353661e-04  4.1513812784898548e-04  2.3189972115627761e-02  4.2995211081808329e-02  2.5091367533538255e-02  2.5878914617084407e-02  2.5690654752647122e-02  5.2272906524522432e-03  2.9453035172180848e-02  2.4526602186358191e-02  2.6025274634831796e-02  2.2056429054143154e-02  3.9004814501665633e-04  3.2534271316588335e-02  3.3168846773817137e-02  3.3528968880668371e-02  5.2144218322490742e-02  4.7955149817558398e-02  1.7100816647887179e-02  1.6538907722366668e-02  4.1207045967454961e-03  4.0097688490291258e-02  2.9654570275399621e-02  3.9618773360363936e-02  2.6679994872870817e-03  5.0650591567388298e-02  3.7550290074819144e-02  3.5369458692411294e-02  2.0950745634957111e-02  5.0345656502087152e-02  2.4199765287607387e-02  2.3880803669575498e-02  2.3509481258574331e-02  4.3966488868871959e-02  4.2653339430863448e-02  5.0717891102550025e-02  3.8532301703753234e-02  4.2183111080484663e-02  3.2438747196286748e-02  2.2015301568956411e-02  4.6771304167167911e-03  1.8780695989325091e-02  2.2576019446770416e-03  3.8613621504399551e-02  4.9733717335921690e-02  5.0871269935149427e-02  4.8453440354997372e-02  1.2167832277746416e-02  5.1224057599819815e-02  4.9344924892117649e-02  4.7834743541607848e-02  4.7506302020685801e-02  5.2197082801129883e-02  4.7977496975091932e-02  5.1813168490732038e-02  3.6446803331669879e-02  8.9830094476378245e-03  4.1161980408646846e-02  7.2917799513937450e-03  5.2004804821203017e-02  3.9637582983472225e-02  3.9161525559742505e-02  2.5146195574657061e-02  3.6119045196518693e-02  3.6033927517857139e-02  3.5358312135324046e-02  5.7680824216260317e-03  3.0875189206014952e-03  3.8569812928131213e-02  5.5730392012508082e-04  1.1164937367420151e-03  1.2620978573276522e-03  2.6591019143112862e-02  2.6585820796026269e-02  5.3491978151432765e-02  2.8674146528300849e-02  4.4200638120044204e-02  2.6178578109201843e-02  4.1079440604883069e-02  4.1938217623825214e-02  6.4933066018223358e-03  6.1401749743568070e-03  5.1789392352491345e-02  3.3671078967019916e-02  4.2905366169232836e-02  2.2711030079691257e-02  1.9136653586431726e-02  1.9885047604852837e-02  1.7054693386993425e-03  1.6426551295702654e-02  2.4969625710862638e-02  2.5132463003682371e-02  2.0940338087815827e-02  2.4768500283528401e-03  3.2627264106330947e-02  4.4991949757206849e-02  3.9078350204760977e-02  3.1709331853460726e-02  2.9518046878257802e-02  3.0201280601759951e-02  4.7112942380535969e-02  4.7444133180348777e-02  4.8386747317963053e-02  1.8505965726103350e-02  1.788