<?xml version="1.0"?>
<VTKFile type="UnstructuredGrid"  version="0.1"  >
<UnstructuredGrid>
<Piece  NumberOfPoints="1079" NumberOfCells="1944">
<Points>
<DataArray  type="Float64"  NumberOfComponents="3"  format="ascii">0.08500000000000001 0.02 0  0.005 0.02 0  0.005 0.03 0  0 0.03 0  0 0 0  0.005 0 0  0.005 0.01 0  0.08500000000000001 0.01 0  0 0.015 0  0 0.0075 0  0 0.0225 0  0.04500000000000001 0.02 0  0.04500000000000001 0.01 0  0.025 0.01 0  0.025 0.02 0  0.065 0.02 0  0.065 0.01 0  0.035 0.02 0  0.035 0.01 0  0.07500000000000001 0.02 0  0.07500000000000001 0.01 0  0.015 0.02 0  0.015 0.01 0  0.05500000000000001 0.01 0  0.05500000000000001 0.02 0  0.07000000000000001 0.01 0  0.07000000000000001 0.02 0  0.05 0.01 0  0.03 0.01 0  0.03 0.02 0  0.04000000000000001 0.01 0  0.01 0.01 0  0.02 0.02 0  0.06 0.015 0  0.08500000000000001 0.015 0  0.05 0.02 0  0.07250000000000001 0.015 0  0.04000000000000001 0.02 0  0.03750000000000001 0.015 0  0.0525 0.015 0  0.02 0.01 0  0.01 0.02 0  0.0275 0.015 0  0.0125 0.015 0  0.08000000000000002 0.01 0  0.08000000000000002 0.02 0  0.0325 0.014375 0  0.04291666666666667 0.015 0  0.065 0.015 0  0.005 0.005 0  0.005 0.015 0  0.02208333333333334 0.015 0  0.07791666666666668 0.015 0  0.005 0.025 0  0.06 0.01 0  0.06 0.02 0  0.01729166666666667 0.01572916666666667 0  0.04770833333333334 0.01427083333333334 0  0.06875000000000001 0.01625 0  0.008750000000000001 0.01625 0  0.05625000000000001 0.01625 0  0 0.00375 0  0 0.01875 0  0 0.01125 0  0 0.02625 0  0.08145833333333334 0.01354166666666667 0  0.0675 0.01 0  0.0075 0.0125 0  0.0625 0.0175 0  0.0575 0.0125 0  0.0625 0.0125 0  0.08207465277777778 0.01707465277777778 0  0.06767857142857144 0.01321428571428571 0  0.0175 0.01 0  0.01875 0.01291382575757576 0  0.0475 0.02 0  0.04564168086314595 0.01679860519591141 0  0.00296875 0.0125 0  0.0025 0.03 0  0.0025 0 0  0.00296875 0.0175 0  0.01521990740740741 0.0132349537037037 0  0.0497800925925926 0.0167650462962963 0  0.0325 0.02 0  0.03474264705882353 0.01674632352941176 0  0.03750000000000001 0.02 0  0.03025735294117647 0.01674632352941176 0  0.0275 0.02 0  0.0525 0.02 0  0.0125 0.01 0  0.04020833333333334 0.01322916666666667 0  0.03750000000000001 0.01 0  0.0225 0.02 0  0.02479166666666667 0.01677083333333333 0  0.07520833333333335 0.01322916666666667 0  0.07250000000000001 0.01 0  0.07520833333333335 0.01677083333333334 0  0.07250000000000001 0.02 0  0.04020833333333334 0.01677083333333333 0  0.0225 0.01 0  0.02375 0.01262152777777778 0  0.04250000000000001 0.02 0  0.04250000000000001 0.01 0  0.07750000000000001 0.01 0  0.07750000000000001 0.02 0  0.05036151960784314 0.01294424019607843 0  0.0705560064935065 0.01284699675324675 0  0.05458333333333334 0.01291666666666666 0  0.0021875 0.024375 0  0.005 0.0275 0  0.01125 0.0175 0  0.01463848039215686 0.01705575980392157 0  0.01 0.01375 0  0.03625 0.0125 0  0.0021875 0.009375 0  0.05375000000000001 0.0175 0  0.07125000000000001 0.0175 0  0.005 0.0025 0  0.0021875 0.005625 0  0.02655220103578155 0.01234889948210923 0  0.002187499999999999 0.020625 0  0.02979166666666667 0.01302083333333333 0  0.0525 0.01 0  0.07895833333333334 0.0125 0  0.01994277885235332 0.01704213007736944 0  0.07934656179076068 0.01733823814273861 0  0.04505722114764669 0.01295786992263056 0  0.06625 0.0175 0  0.006250000000000001 0.0175 0  0.05750000000000001 0.02 0  0.05875000000000001 0.0175 0  0.005 0.0225 0  0.005 0.0075 0  0.002375 0.027375 0  0.002375 0.002625000000000001 0  0.0475 0.01 0  0.0175 0.02 0  0.0325 0.01 0  0.03375 0.0121875 0  0.04261299435028249 0.01749205508474576 0  0.08500000000000001 0.0125 0  0.08250000000000002 0.01 0  0.02121963399965531 0.01224824108143494 0  0.0675 0.02 0  0.0125 0.02 0  0.02720152243589744 0.0175 0  0.03715165441176471 0.0175 0  0.08500000000000001 0.0175 0  0.0275 0.01 0  0.0025 0.0149560546875 0  0.0075 0.01 0  0.0075 0.02 0  0.06526785714285716 0.0125 0  0.01281031447005516 0.0125 0  0.0625 0.015 0  0.06 0.0125 0  0.05750000000000001 0.01 0  0.0625 0.02 0  0.0625 0.01 0  0.08250000000000002 0.02 0  0.04260103740101855 0.01252623201412851 0  0.02240052247582197 0.01750164767101344 0  0.07293583459427785 0.01238479732953041 0  0.005234374999999999 0.012265625 0  0.03528131980640358 0.01454684009679821 0  0.0325 0.01760027210036557 0  0.02532593822924343 0.01428227733767297 0  0.08009952069819683 0.01527145502895417 0  0.01987282359856536 0.01482587683689801 0  0.04828232595121382 0.01210233572595705 0  0.01671767404878618 0.01789766427404295 0  0.05125 0.01829007549029352 0  0.05247215456215357 0.01288882122882024 0  0.07338729919678716 0.01799385040160642 0  0.03838729919678716 0.01200614959839357 0  0.07717482110586968 0.01780301674207099 0  0.04771860040890012 0.01773306039388322 0  0.03125 0.01160380747126437 0  0.06875000000000001 0.01154265873015873 0  0.07625000000000001 0.01154065860215054 0  0.01625 0.01153997817696946 0  0.068125 0.018125 0  0.05437500000000001 0.015625 0  0.066875 0.015625 0  0.07039794950204951 0.01494384850614853 0  0.05687500000000001 0.018125 0  0.006875 0.015625 0  0.008749999999999999 0.01833333333333333 0  0.010625 0.015625 0  0.05625 0.01416666666666667 0  0.05812500000000001 0.015625 0  0.0449088595298192 0.01494528408816316 0  0 0.016875 0  0 0.013125 0  0.04962452342047931 0.01478673066448802 0  0.0153754765795207 0.01521326933551198 0  0.0771774565913315 0.01322498191305479 0  0.01857756431135545 0.01840228599899994 0  0.04642243568864456 0.01159771400100006 0  0.08125000000000002 0.01155637254901961 0  0.08317650804863432 0.0118234919513657 0  0.08288217288011697 0.01511353252923977 0  0.02837253504384828 0.0117177464035174 0  0.03896057962520807 0.01831163685754031 0  0.01125 0.0114244162490927 0  0.00935910490099115 0.0119067901980177 0  0.02946078431372549 0.01495404411764706 0  0.02875 0.0185829434466942 0  0.002968749999999999 0.0225 0  0.064375 0.016875 0  0.00296875 0.0075 0  0 0.001875 0  0 0.005625 0  0 0.009375 0  0 0.020625 0  0 0.024375 0  0 0.028125 0  0.06062500000000001 0.01812500000000001 0  0.008303571428571429 0.01446428571428572 0  0.01375 0.01865917058160413 0  0.05137790313978056 0.01143372888932909 0  0.04125000000000001 0.01131513063942604 0  0.04101690263896279 0.01844430285842771 0  0.02399563533148224 0.01844349395710867 0  0.08125000000000002 0.01868815426145731 0  0.05354684380692146 0.01145463537600848 0  0.01699195823639423 0.01315138909884649 0  0.07598357371794873 0.015 0  0.04098357371794872 0.015 0  0.003744047619047619 0.00375 0  0.003344630281690141 0.02580853873239437 0  0.04625 0.0187354532243972 0  0.06388392857142858 0.01138392857142858 0  0.06375 0.01375 0  0.05875 0.01375 0  0.06375 0.02 0  0.00622802734375 0.01372802734375 0  0.003630681818181818 0.001369318181818182 0  0.003630681818181818 0.02863068181818182 0  0.06125 0.01625 0  0.06125 0.01125 0  0.05625000000000001 0.01 0  0.05875 0.01125 0  0.06125 0.01375 0  0.08337864763241221 0.0183786476324122 0  0.05213634138653413 0.01674432930673294 0  0.04375000000000001 0.01 0  0.07424178685897437 0.01529258578431373 0  0.03924178685897436 0.01529258578431372 0  0.03410139294454583 0.01843406022904556 0  0.03089860705545417 0.01843406022904556 0  0.02094160484316717 0.01850229584291991 0  0.04375000000000001 0.02 0  0.04437042160883325 0.01820701498672512 0  0.04816311705429156 0.01600061344661149 0  0.07151224904251052 0.0114127410511319 0  0.04395528506193162 0.01639387970349481 0  0.0128750358694518 0.0167500179347259 0  0.02855808448399799 0.01642839899839741 0  0.02812690373330794 0.01340955081400569 0  0.08358500641945087 0.01351822349116885 0  0.05590277777777778 0.01173611111111111 0  0.06683110430364615 0.01164926404662283 0  0.02573206694914602 0.01842532451809762 0  0.01438126661842046 0.01166701193099454 0  0.02384283211216029 0.01526549696571563 0  0.03625 0.02 0  0.004609375000000001 0.0182421875 0  0.003398437500000001 0.01943359375 0  0.001728307845744682 0.01894718251329787 0  0.004377805359085963 0.01656966216675735 0  0.04649673309852075 0.0153889662370871 0  0.03615513600614297 0.01592654988586041 0  0.03316985071935832 0.01598763605018279 0  0.03110111603888768 0.01529816275177977 0  0.01370614113484869 0.0138804542047638 0  0.04930041102671841 0.01842260568883502 0  0.07875000000000001 0.02 0  0.0745395359848485 0.01165101111925709 0  0.03860755698543604 0.01373741558556884 0  0.02605038706571737 0.01573944002207753 0  0.07559826163500957 0.01841729376139847 0  0.04437500000000001 0.01149157931286774 0  0.06874116707361365 0.01454618473032123 0  0.003761917372881356 0.0239307468220339 0  0.003984374999999999 0.01125 0  0.003768503289473684 0.01392539576480263 0  0.001796875 0.0111328125 0  0.003761917372881356 0.008930746822033899 0  0.005 0.00625 0  0.003761917372881355 0.0210692531779661 0  0.06633928571428571 0.01410714285714285 0  0.006484375 0.01125 0  0.08364120589325512 0.01657288979763549 0  0.03576267476503373 0.0184116442851204 0  0.07370875846579374 0.0137848203678562 0  0.06964285714285715 0.01758928571428571 0  0.05520833333333334 0.01833333333333333 0  0.06491071428571429 0.01839285714285714 0  0.0510098951944636 0.01559941474766356 0  0.01786087179886325 0.0115702210443714 0  0.01972197383235524 0.01160576093166696 0  0.01804697593127788 0.01433503795474974 0  0.001644074528704677 0.01642892723865279 0  0.00125 0.03 0  0.001497685185185185 0.001267746913580247 0  0.07315451164202422 0.01643443118912983 0  0.001233906745910645 0.0140625 0  0.01162635071030191 0.01362229857939618 0  0.01528023503083844 0.01845923557506155 0  0.06625 0.02 0  0.07695012019230771 0.01624387078484555 0  0.03139091092855769 0.01320776147621796 0  0.03857339107781042 0.01675295051810485 0  0.001754993120977522 0.02590789105493891 0  0.002288757784711197 0.00412546923654445 0  0.07914382119690884 0.01404430049871201 0  0.001391810103286306 0.01257390899021902 0  0.0419501201923077 0.01614675005432421 0  0.001484375 0.007018229166666667 0  0.001484375 0.02201822916666666 0  0.048
[...]
<PointData  Scalars="pressure"> 
<DataArray  type="Float64"  Name="pressure"  format="ascii">-4.9441254745508489e-06  1.2598285398530997e-03  8.0509699862907325e-04  3.9356258452084538e-04  4.5644607593534308e-04  1.8500473711432623e-04  1.2532335627181757e-03  -4.7574495301419562e-06  1.2531960281972742e-03  1.3132729661369834e-03  1.3289636008195608e-03  6.1508552628271220e-04  6.1514429070756368e-04  9.2338467617904773e-04  9.2337741110807778e-04  3.0650431050976100e-04  3.0667172122887329e-04  7.6920508618103422e-04  7.6911527708387766e-04  1.5206825015656411e-04  1.5255417784084701e-04  1.0776598955598939e-03  1.0772489266762135e-03  4.6031276924845974e-04  4.6066942445536141e-04  2.2957600108581541e-04  2.2956977744543707e-04  5.3802398982370737e-04  8.4621521234004115e-04  8.4625719634286807e-04  6.9221706858987105e-04  1.1544823880818241e-03  1.0003651748720804e-03  3.8371439564359081e-04  -4.2041396202451078e-21  5.3783382584725087e-04  1.9092005987211057e-04  6.9246654741710913e-04  7.3062461214363236e-04  4.9933544183566631e-04  1.0003300737639125e-03  1.1557794345643578e-03  8.8474646497421349e-04  1.1158472682363844e-03  7.5200083811309115e-05  7.4600069607234145e-05  8.0769046562639574e-04  6.4710274197371791e-04  3.0658223093148391e-04  1.3577420285055563e-03  1.2245313690130287e-03  9.6821799060589078e-04  1.0740263237718110e-04  1.3800794941329563e-03  3.8361903174551071e-04  3.8332011140732459e-04  1.0420444060347024e-03  5.7320149052989412e-04  2.4876488104844357e-04  1.1735027399713013e-03  4.4155593570392954e-04  1.3536330593509811e-03  1.2749314953441043e-03  1.2684558434976631e-03  1.3754201299614696e-03  5.2974495984947304e-05  2.6798794471511692e-04  1.1924741042870079e-03  3.4512664078374552e-04  4.2226296690648990e-04  3.4513014430283029e-04  4.3445493209741103e-05  2.6527691748099152e-04  1.0388233741568610e-03  1.0195677093766417e-03  5.7584088485666048e-04  6.0507592699457480e-04  1.2500017844179747e-03  1.8736608479604320e-03  1.8453333944339362e-03  1.2534216270713508e-03  1.0739215164602019e-03  5.4123755261375789e-04  8.0740812633942863e-04  7.7313360411049520e-04  7.3042011024023303e-04  8.4225825162137947e-04  8.8463140974576594e-04  4.9936297976755349e-04  1.1159614537534610e-03  6.8887254951812099e-04  7.3078853945509302e-04  9.6169364955248451e-04  9.2648180333839065e-04  1.4915493460250921e-04  1.9093287888474173e-04  1.4913674313868112e-04  1.9042002239424717e-04  6.8889107051045627e-04  9.6183113708242984e-04  9.4255739550048339e-04  6.5348601130870668e-04  6.5382628017019871e-04  1.1458151065280275e-04  1.1395562793889264e-04  5.3230686879825152e-04  2.2092822188075778e-04  4.6722685412591957e-04  1.3607931086862040e-03  1.4440588705517468e-03  1.1353558369804099e-03  1.0829989184330693e-03  1.1540990446234315e-03  7.4985490923659443e-04  1.2865522060390229e-03  4.8008895977944623e-04  2.1019378963543713e-04  1.4094169010125926e-03  1.3416718521832422e-03  8.9936917616429595e-04  1.2969218690555174e-03  8.4942027342156960e-04  4.9903154130043073e-04  9.1240699666802699e-05  1.0011920537265993e-03  8.5298847574915277e-05  6.1408183085192561e-04  2.8731926059942455e-04  1.2132310163815128e-03  4.2271050125863342e-04  4.0303511858390305e-04  1.3284192134478830e-03  1.3131868267263515e-03  1.4297799928480156e-03  1.3969841623791236e-03  5.7642425182723525e-04  1.0382038085010906e-03  8.0768319824567195e-04  7.8845928054418633e-04  6.5179214631996775e-04  -1.4809716731359341e-07  3.6700333813416841e-05  9.8153691122228760e-04  2.6774927017365690e-04  1.1162554597084911e-03  8.8934822987951547e-04  7.3601360014956870e-04  -1.3583124126630271e-07  8.8426745082484859e-04  1.2466765211185916e-03  1.1940049255030061e-03  1.1956609429986402e-03  3.0244266035942468e-04  1.1110019543917455e-03  3.4514365931241826e-04  3.8371852186885311e-04  4.2224996015526267e-04  3.4492092204792848e-04  3.4445442890006570e-04  3.6857114288393870e-05  6.5197989622003385e-04  9.6332416964756498e-04  1.8420615876209566e-04  1.2268638407850058e-03  7.6482085371960557e-04  8.0768263116804382e-04  9.1825659974887805e-04  7.3842173236181018e-05  1.0022730540822672e-03  5.6435177439939264e-04  1.0509090178358906e-03  5.1858297866432587e-04  4.9975902669543732e-04  1.7719204215604258e-04  7.1693074559796689e-04  1.1882052479669642e-04  5.7296665846676977e-04  8.2692318575417194e-04  2.4877030011974014e-04  1.3308658795426658e-04  1.0580461223804287e-03  2.5840922321831999e-04  4.7044352978712120e-04  2.7767324663736026e-04  2.2334754322554510e-04  4.3199688228511197e-04  1.2007213242918632e-03  1.1746872820640399e-03  1.1447050362890674e-03  4.4153943460584005e-04  4.1264104131397811e-04  6.1637512210248118e-04  1.2592116319576766e-03  1.2563945832684436e-03  5.4365562817767219e-04  1.0715735707774305e-03  1.1878332060603183e-04  1.0221850433667844e-03  5.9301932522551456e-04  5.5786249989505907e-05  2.6076234796002281e-05  3.1541952883215633e-05  8.7126561079984741e-04  7.0814551075271766e-04  1.1350357687449930e-03  1.1641072354848703e-03  8.5452687866878951e-04  8.6545899842454957e-04  1.3283798491624040e-03  3.1621505014320969e-04  1.3135758562055541e-03  1.3497257028017410e-03  1.3384838921163421e-03  1.2890740317594979e-03  1.2994726650446427e-03  1.3567290618489215e-03  1.3615449899229382e-03  3.7407109401370759e-04  1.1796473560060936e-03  1.0968124917929444e-03  5.1661645491877096e-04  6.7282905403086009e-04  6.7644686415812519e-04  9.3871875425977146e-04  5.5712121197014899e-05  4.8322470294307845e-04  1.0466399283304189e-03  1.3719649225341511e-04  6.7692004652343280e-04  1.3816736060311729e-03  1.3955924448353385e-03  5.9566328124686561e-04  3.2377430025116121e-04  3.2585615402198301e-04  4.0299012200781421e-04  3.2557616325266681e-04  1.2095629665044515e-03  1.4957812672716717e-03  1.5252514043306048e-03  3.6443083407587548e-04  3.6440727868342879e-04  4.4170421813047870e-04  4.0298125960521516e-04  3.6443060658456676e-04  2.2625513019941979e-05  5.0493893644349146e-04  6.3391195898062605e-04  1.6405241030637891e-04  7.0377820412146751e-04  7.8299519209139702e-04  8.3242618319754756e-04  9.8581547570142825e-04  6.3405773461182714e-04  6.2469986072530520e-04  5.6617324372944266e-04  2.0618062048298011e-04  6.3108330636443073e-04  1.1101984144397180e-03  8.6843973620811198e-04  8.7508097639469153e-04  2.0845077052513730e-05  4.4687039535109706e-04  2.7830950577252073e-04  9.1201869292364133e-04  1.0867869451034429e-03  9.4110651552001690e-04  7.5028014359099812e-04  1.2420674048559009e-03  1.2714042977562097e-03  1.2749508991423536e-03  1.2351672997445882e-03  5.9188414325358465e-04  7.5136184859083256e-04  7.9736638846564472e-04  8.2924891076071390e-04  1.0972421056968096e-03  5.4860003053885378e-04  9.4441268959560203e-05  1.5945765084687897e-04  7.1354582574349366e-04  9.0708820412804738e-04  1.4309769357099034e-04  6.2461348974066240e-04  2.4889851849085068e-04  1.3562622800082215e-03  1.2504523180023530e-03  1.2377382876473128e-03  1.2670608026840574e-03  1.2885773975985391e-03  1.3345597883944584e-03  1.2997155665213775e-03  2.8592806046130135e-04  1.2106925403126852e-03  1.9978465133257910e-05  7.5746880912172553e-04  1.7227896725724868e-04  2.3500566642394391e-04  4.5760132042907544e-04  3.0793822153931359e-04  5.2229748827514971e-04  1.0332669063484680e-03  1.0045903391354874e-03  1.0303992821919330e-03  1.2548336991347196e-03  1.4231280313598664e-03  1.3616888307419158e-03  1.8081195395258315e-04  1.2523614429567561e-03  1.1292136751945119e-03  1.0731005409950008e-03  2.8760030234595968e-04  1.2228912843031926e-04  8.2477593230302875e-04  7.1409291955026009e-04  1.3841287385991268e-03  1.3642342587603807e-03  8.8498483479426340e-05  1.2574197926498289e-03  6.6201354920092772e-04  1.3205071089280413e-03  1.3206215246310111e-03  5.5396068900261878e-04  5.4213550277536270e-04  1.0613018167247945e-03  5.1560934721993053e-04  5.9011609818717563e-04  1.0251375653048597e-03  6.3220248307973594e-04  9.8644538756103390e-04  6.6201136387230468e-04  4.8370399527532465e-04  6.9439679620165074e-04  1.0943258286599585e-03  9.8390833342012866e-04  9.6366910013385889e-04  9.2226458702669668e-04  9.4261892379763192e-04  9.0425202212563024e-04  9.6004537222914006e-04  2.4326420700974030e-04  2.0672766556835642e-04  1.0932394197324231e-04  1.3434450415063148e-03  1.3451316067040642e-03  1.3008316789552535e-03  8.4923999346660445e-04  1.3910893859669917e-03  8.9718858868073756e-04  7.7064350483406485e-04  2.2163307600722978e-04  2.6804119673906748e-04  4.6082160112488103e-04  2.7767212364213849e-04  1.9682478508849856e-04  1.1579591801353655e-03  7.6754471818789923e-04  7.4941902596789567e-04  7.3652018100126937e-04  1.1902597162583848e-03  1.2164481734776777e-03  3.8693256046717461e-04  2.9694730818089789e-04  4.1265661876204688e-04  4.9620632006129400e-04  7.4497601982078418e-04  1.1353668078805488e-03  3.3552061135203130e-04  1.1496093889323108e-03  1.1194520713500831e-03  1.2008357615348236e-03  2.0756282582375324e-04  4.2229906068321681e-04  5.2126467767415021e-05  7.8653372365991223e-04  1.1734505070389873e-03  2.2756753067682922e-04  4.6293238602635920e-04  6.3979999379798919e-05  8.4784971653876316e-05  9.2250504935239921e-05  1.3494371498456292e-03  4.8010370175417241e-04  6.9673361358189135e-05  9.3773251712603423e-05  7.8330632821007880e-05  1.0578545668492745e-03  5.5712945067096307e-04  1.2656583731554180e-03  8.1719460626478006e-04  2.2801113735970938e-04  1.2179032901693820e-03  1.1735746683138768e-03  1.1835566582641592e-03  9.4752175011113304e-04  1.0195750678217909e-03  9.1778458081488354e-04  4.4169291307946527e-04  3.2585845208689737e-04  2.4906563716199523e-04  3.6455752976239991e-04  9.4674821052631434e-04  5.8428242921500109e-04  1.1461221731146793e-03  7.3089001047329290e-04  1.3657396958807002e-03  1.3610993149724122e-03  1.4447202135800122e-03  1.7133960678875209e-04  1.0595957931062640e-03  8.3872044071191688e-04  1.2691346436373068e-03  1.1629964835188887e-03  6.4390050662591633e-04  9.8105887951892940e-04  1.2453198068497161e-03  7.3110454327549158e-07  1.0065925031104139e-05  3.5548253013279000e-04  3.9269374548176161e-04  1.7174510094604130e-04  7.1126915057445942e-04  2.4155841315448836e-04  8.0424706191431202e-04  8.0586731407686590e-04  7.8883484239947264e-04  9.9933187604460448e-04  1.0218162926356649e-03  4.2272554072635501e-04  8.8955087268538025e-04  6.4515556002800814e-04  7.3823246918918979e-04  7.3205195855224458e-04  9.6774031474561838e-04  1.7763056515611566e-04  1.1061670016697107e-03  8.8764448158200088e-04  9.0731481430760149e-04  8.8487547925768077e-04  7.5470887726269639e-04  1.1265110789934443e-03  3.0447791820926854e-04  3.0451357186727447e-04  2.8385312616453388e-04  1.2803186109006446e-03  4.8668625962238469e-04  1.2478062790313874e-03  9.8226801343063411e-04  9.5800011981890261e-04  2.1004959215825442e-04  1.3328928931287555e-04  5.5684334102195190e-04  9.0421605179371364e-04  2.1037906064377327e-04  7.8830818972103883e-04  3.4514195147148383e-04  2.8708997388051597e-04  3.2591809247700388e-04  4.8036243030294201e-04  5.5486149811584589e-05  9.4232797939272075e-04  5.1855185128056873e-04  6.7276965787985718e-04  7.1125284723245986e-04  5.5565388843064878e-05  1.3303598389059198e-04  2.4877801227983493e-04  5.1859022466361039e-04  6.7290335872685885e-04  1.3523334481586916e-03  -1.3333887108843121e-08  4.2226878776708643e-04  3.4517520313153533e-04  1.0967904960055806e-03  1.1350321378020398e-03  1.1748804685624916e-03  1.0580482408909433e-03  1.2923599043980836e-03  1.0962271073805859e-03  1.7409602070366020e-03  1.3834679337176106e-03  1.4542833530803993e-03  1.6924209678308973e-03  1.4296383552330075e-03  1.2138264705024672e-03  1.2250901452425904e-03  1.3044310271692668e-03  8.3385254031704562e-09  9.8117418589177704e-04  3.4514178951578839e-04  1.4100414947378929e-03  8.6537790953087625e-04  8.6567080095611981e-04  1.0195001814425563e-03  8.2677794697306008e-04  1.5047945842683878e-03  9.1968585201636255e-07  8.2730034562512162e-04  4.7696342593673576e-04  3.6442965273351252e-04  3.8371265813438713e-04  4.0298225773127287e-04  3.8372561604674575e-04  4.0291225445351474e-04  3.6444184007384948e-04  3.6522326701594551e-04  5.9616514504481986e-04  5.9562869625191795e-04  4.0311157004901428e-04  1.0647009121135054e-05  6.7170312669855578e-04  1.0394795380680959e-04  5.6676289524872059e-04  6.7110113223802566e-04  6.0013583176315240e-04  1.2259972573729371e-03  9.4097147722798670e-04  4.4795751959383862e-04  2.6770325224570788e-04  1.6205973181467731e-04  3.6744354614128290e-05  6.3258337165459364e-04  2.0205887262116494e-04  4.5099019664442407e-04  1.2860862239477734e-03  1.2525536716309978e-03  8.1371754538597113e-04  7.8963435363818535e-04  1.0524216354024572e-04  1.3252952631831428e-03  1.2626498151294051e-04  1.4142865481066857e-03  1.2900283191163789e-03  8.5784482554201753e-04  4.3084060414595699e-04  2.3103652772839381e-04  4.6436650637995735e-04  3.2106462354433674e-04  7.0569524960890047e-05  1.0038775418533378e-03  5.2303581184326550e-04  1.2380883417555577e-03  1.3646086959408293e-03  1.0935185063840676e-03  1.6711531981910137e-04  1.5636503611831225e-04  6.9759507444147443e-04  1.2306141755738260e-03  1.2098243004461840e-03  1.2401651202674671e-03  5.5613673938886192e-04  7.6832158831511351e-04  3.6318745811798536e-05  8.2719952783614614e-04  9.2455268845914585e-04  3.2787978485725834e-04  4.4621681431077786e-04  9.7671797183450826e-04  1.5987421742321047e-04  1.0393145465036416e-03  5.7075514751125933e-04  5.6678324362125583e-04  1.0428292950415969e-03  1.8983510705876486e-04  1.1407211204622432e-03  5.9030025227723760e-04  7.2132781068207780e-04  1.1286396426744827e-03  7.4031951335281924e-05  1.3276836289776058e-04  5.8131648799866970e-05  1.0036212756188777e-03  1.0090387723582970e-03  1.1966775659234064e-03  1.5332495289844701e-03  2.5965067787010445e-04  1.9296578916618690e-04  7.0385487400601292e-04  1.2108659154225188e-03  7.8387376438885954e-04  1.3350388099878279e-03  7.8754583202616873e-04  4.9991185169951801e-04  9.0609393193078782e-04  8.4907540202790264e-04  1.0576055423160947e-03  4.0102474331850548e-05  6.6099254428899192e-04  1.2229732322137908e-04  6.0843167745336434e-04  1.0860174131893023e-03  1.4719999166974051e-03  7.2084693989593791e-04  1.8113030691593881e-04  9.3225081690205926e-04  1.0189407514275967e-04  5.3407065460341866e-04  1.1882366244310672e-03  1.2657355622480773e-03  3.4995877893459655e-05  1.6050759047447879e-05  5.2820041053357777e-04  8.1112255062925341e-04  4.8348778092790253e-04  5.1603512354028800e-04  7.0171042269297126e-04  2.3852824216316580e-04  9.8606961185829407e-04  1.0983821445734903e-03  1.3305689386169882e-03  1.3073345941501387e-03  1.3357472902107842e-03  1.1136109992983879e-03  2.9690630281461821e-04  1.2273123289477002e-03  1.1639380434494762e-03  1.1861180982739796e-03  1.1741039522704922e-03  1.6436544776340066e-04  1.3723748402806013e-04  7.1861595541234888e-04  5.4690973045468127e-04  4.9965716259614025e-04  8.1591682884237806e-04  7.4974795783796437e-04  5.0896943894565918e-04  6.9184787693247216e-04  6.9079832568887936e-04  1.3539408008462668e-03  1.0684236095569069e-03  7.5449994198882467e-04  2.0676035321588228e-04  9.0391738217683224e-04  8.7350568918837608e-04  7.2920695361712205e-04  8.5978743241571726e-04  1.0099095073115912e-03  1.3058255427985859e-03  1.2590156712718513e-03  7.9809010699148468e-04  1.3609232963800208e-03  8.3929455391036265e-04  8.3652603504160241e-04  1.3209483565912955e-03  1.3099861446755972e-03  1.3069352203915394e-03  6.0782855652796502e-04  6.1181399414815974e-04  1.0336443824104679e-03  8.2336837881841934e-04  6.4610185149989278e-04  1.3467301988830920e-03  1.2979521147077782e-03  7.5237988214662242e-04  1.1640599946311303e-03  1.2633815747310640e-03  1.2643197451760303e-03  9.4294773195486046e-05  5.3212784446293921e-04  9.5578007741855316e-04  5.1238464714276602e-05  6.5414864376064154e-05  4.5779397314919507e-05  6.3178165291174907e-04  6.1679678427805447e-04  6.0672790604477029e-04  5.2993375884043288e-04  2.5617222898142837e-04  2.5841436905118409e-04  1.2550801583194157e-03  5.3803704325087185e-04  1.0802728143143874e-03  1.0555334584273148e-03  5.5795891940033831e-04  1.2343423258311955e-04  1.4692753531130097e-04  1.4568118728117949e-04  1.3081693669130017e-04  1.0484235153436540e-03  1.0718487624839452e-03  1.0676498703828328e-03  7.2052825262404149e-04  3.2028739375527355e-04  3.7407728314142502e-04  3.3161639234983406e-04  1.1584034680468798e-03  2.5841936726898689e-04  3.1140125724928648e-04  4.3197371538530220e-04  2.7285130790837692e-04  2.5358801949850444e-04  4.8499439368121939e-04  1.2020488237145033e-03  1.1448877727553602e-03  4.1256818479905034e-04  1.1849767891889157e-03  2.8249367615623900e-04  2.9212686158309651e-04  3.0175861753181969e-04  4.1751932498168966e-04  4.0300731005061429e-04  3.8777451125754999e-04  3.6037831799150944e-04  3.9922657095734496e-04  3.7912083948972994e-04  8.8681014544516985e-05  1.2747651390158894e-05  5.8052570448145421e-04  4.5124833864189655e-04  1.0742151300359245e-04  6.7373547683632386e-04  8.6949361709426842e-04  8.4380253695956280e-04  1.1485590851955958e-03  8.7298035511725459e-04  9.7291062049185766e-04  1.0142827758402224e-03  7.7035580095448190e-04  1.1783080081509459e-03  1.1199716011577607e-03  9.5497568574923807e-05  2.3916750349867308e-04  9.3860516956120884e-04  9.2394525152674314e-04  8.1732343922341730e-04  4.1124638415779404e-05  2.6019851051611826e-05  1.0954263961248113e-05  6.1184557793618889e-04  1.1344189971366377e-03  6.6201160643992681e-04  6.8278999954272598e-04  6.7782303845993286e-04  1.3792283377946096e-04  7.7708864355995576e-04  6.4711099857485486e-04  6.8665148788512004e-04  5.8193844212335014e-04  1.0294821770539129e-05  8.5838295074579035e-04  8.7512457354444015e-04  8.8462683181518055e-04  1.3779414256872389e-03  1.2647643046708415e-03  4.5119018419381457e-04  4.3636570193520362e-04  1.0872701551280310e-04  1.0579287180634642e-03  7.8240586567878919e-04  1.0452977424838012e-03  7.0399563981652586e-05  1.3312166124164455e-03  9.9072251295846984e-04  9.3318591165225044e-04  5.5276646419777061e-04  1.3268297267802515e-03  6.3848786211382746e-04  6.3007201992150040e-04  6.2027546892597183e-04  1.1599613465009000e-03  1.1253291962152255e-03  1.3395461614797376e-03  1.0166332539465767e-03  1.1129753162146606e-03  8.5586269565053998e-04  5.8085426222429317e-04  1.2340750808749354e-04  4.9551231566203637e-04  5.9570326109251759e-05  1.0187762260785898e-03  1.3130611996333610e-03  1.3432712924820352e-03  1.2777066922664024e-03  3.2104037075747385e-04  1.3493081105263023e-03  1.3008919353133348e-03  1.2616532800442813e-03  1.2532401204828608e-03  1.3754465884427672e-03  1.2661632784496115e-03  1.3677484657258709e-03  9.6161010425252795e-04  2.3701266730781549e-04  1.0860265108052882e-03  1.9239200271950151e-04  1.3739107630415985e-03  1.0457900559490451e-03  1.0332316094104573e-03  6.6345829199297680e-04  9.5296180440376408e-04  9.5071778953123250e-04  9.3289180529299281e-04  1.5219095788976563e-04  8.1467338979224340e-05  1.0176206103817251e-03  1.4706653171135207e-05  2.9462541060865755e-05  3.3313240203686996e-05  7.0157790593162149e-04  7.0144081681794185e-04  1.4141630767164227e-03  7.5653868839571149e-04  1.1661634623724596e-03  6.9069624883842781e-04  1.0838497564847796e-03  1.1065161106540377e-03  1.7132516609617358e-04  1.6200730064165570e-04  1.3652945764517641e-03  8.8837636487341465e-04  1.1320137587849460e-03  5.9920939984236122e-04  5.0490384678115769e-04  5.2464944809370653e-04  4.5001708038758251e-05  4.3340130090711496e-04  6.5879987661448050e-04  6.6309509245802371e-04  5.5249171475655213e-04  6.5356435048414261e-05  8.6083653251356278e-04  1.1871159618555710e-03  1.0310382866042236e-03  8.3661778408496330e-04  7.7880355176802721e-04  7.9683017291339866e-04  1.2434151804123039e-03  1.2520823335951815e-03  1.2759591062975733e-03  4.8826363503692329e-04  4.717