<?xml version="1.0"?>
<VTKFile type="UnstructuredGrid"  version="0.1"  >
<UnstructuredGrid>
<Piece  NumberOfPoints="1079" NumberOfCells="1944">
<Points>
<DataArray  type="Float64"  NumberOfComponents="3"  format="ascii">0.08500000000000001 0.02 0  0.005 0.02 0  0.005 0.03 0  0 0.03 0  0 0 0  0.005 0 0  0.005 0.01 0  0.08500000000000001 0.01 0  0 0.015 0  0 0.0075 0  0 0.0225 0  0.04500000000000001 0.02 0  0.04500000000000001 0.01 0  0.025 0.01 0  0.025 0.02 0  0.065 0.02 0  0.065 0.01 0  0.035 0.02 0  0.035 0.01 0  0.07500000000000001 0.02 0  0.07500000000000001 0.01 0  0.015 0.02 0  0.015 0.01 0  0.05500000000000001 0.01 0  0.05500000000000001 0.02 0  0.07000000000000001 0.01 0  0.07000000000000001 0.02 0  0.05 0.01 0  0.03 0.01 0  0.03 0.02 0  0.04000000000000001 0.01 0  0.01 0.01 0  0.02 0.02 0  0.06 0.015 0  0.08500000000000001 0.015 0  0.05 0.02 0  0.07250000000000001 0.015 0  0.04000000000000001 0.02 0  0.03750000000000001 0.015 0  0.0525 0.015 0  0.02 0.01 0  0.01 0.02 0  0.0275 0.015 0  0.0125 0.015 0  0.08000000000000002 0.01 0  0.08000000000000002 0.02 0  0.0325 0.014375 0  0.04291666666666667 0.015 0  0.065 0.015 0  0.005 0.005 0  0.005 0.015 0  0.02208333333333334 0.015 0  0.07791666666666668 0.015 0  0.005 0.025 0  0.06 0.01 0  0.06 0.02 0  0.01729166666666667 0.01572916666666667 0  0.04770833333333334 0.01427083333333334 0  0.06875000000000001 0.01625 0  0.008750000000000001 0.01625 0  0.05625000000000001 0.01625 0  0 0.00375 0  0 0.01875 0  0 0.01125 0  0 0.02625 0  0.08145833333333334 0.01354166666666667 0  0.0675 0.01 0  0.0075 0.0125 0  0.0625 0.0175 0  0.0575 0.0125 0  0.0625 0.0125 0  0.08207465277777778 0.01707465277777778 0  0.06767857142857144 0.01321428571428571 0  0.0175 0.01 0  0.01875 0.01291382575757576 0  0.0475 0.02 0  0.04564168086314595 0.01679860519591141 0  0.00296875 0.0125 0  0.0025 0.03 0  0.0025 0 0  0.00296875 0.0175 0  0.01521990740740741 0.0132349537037037 0  0.0497800925925926 0.0167650462962963 0  0.0325 0.02 0  0.03474264705882353 0.01674632352941176 0  0.03750000000000001 0.02 0  0.03025735294117647 0.01674632352941176 0  0.0275 0.02 0  0.0525 0.02 0  0.0125 0.01 0  0.04020833333333334 0.01322916666666667 0  0.03750000000000001 0.01 0  0.0225 0.02 0  0.02479166666666667 0.01677083333333333 0  0.07520833333333335 0.01322916666666667 0  0.07250000000000001 0.01 0  0.07520833333333335 0.01677083333333334 0  0.07250000000000001 0.02 0  0.04020833333333334 0.01677083333333333 0  0.0225 0.01 0  0.02375 0.01262152777777778 0  0.04250000000000001 0.02 0  0.04250000000000001 0.01 0  0.07750000000000001 0.01 0  0.07750000000000001 0.02 0  0.05036151960784314 0.01294424019607843 0  0.0705560064935065 0.01284699675324675 0  0.05458333333333334 0.01291666666666666 0  0.0021875 0.024375 0  0.005 0.0275 0  0.01125 0.0175 0  0.01463848039215686 0.01705575980392157 0  0.01 0.01375 0  0.03625 0.0125 0  0.0021875 0.009375 0  0.05375000000000001 0.0175 0  0.07125000000000001 0.0175 0  0.005 0.0025 0  0.0021875 0.005625 0  0.02655220103578155 0.01234889948210923 0  0.002187499999999999 0.020625 0  0.02979166666666667 0.01302083333333333 0  0.0525 0.01 0  0.07895833333333334 0.0125 0  0.01994277885235332 0.01704213007736944 0  0.07934656179076068 0.01733823814273861 0  0.04505722114764669 0.01295786992263056 0  0.06625 0.0175 0  0.006250000000000001 0.0175 0  0.05750000000000001 0.02 0  0.05875000000000001 0.0175 0  0.005 0.0225 0  0.005 0.0075 0  0.002375 0.027375 0  0.002375 0.002625000000000001 0  0.0475 0.01 0  0.0175 0.02 0  0.0325 0.01 0  0.03375 0.0121875 0  0.04261299435028249 0.01749205508474576 0  0.08500000000000001 0.0125 0  0.08250000000000002 0.01 0  0.02121963399965531 0.01224824108143494 0  0.0675 0.02 0  0.0125 0.02 0  0.02720152243589744 0.0175 0  0.03715165441176471 0.0175 0  0.08500000000000001 0.0175 0  0.0275 0.01 0  0.0025 0.0149560546875 0  0.0075 0.01 0  0.0075 0.02 0  0.06526785714285716 0.0125 0  0.01281031447005516 0.0125 0  0.0625 0.015 0  0.06 0.0125 0  0.05750000000000001 0.01 0  0.0625 0.02 0  0.0625 0.01 0  0.08250000000000002 0.02 0  0.04260103740101855 0.01252623201412851 0  0.02240052247582197 0.01750164767101344 0  0.07293583459427785 0.01238479732953041 0  0.005234374999999999 0.012265625 0  0.03528131980640358 0.01454684009679821 0  0.0325 0.01760027210036557 0  0.02532593822924343 0.01428227733767297 0  0.08009952069819683 0.01527145502895417 0  0.01987282359856536 0.01482587683689801 0  0.04828232595121382 0.01210233572595705 0  0.01671767404878618 0.01789766427404295 0  0.05125 0.01829007549029352 0  0.05247215456215357 0.01288882122882024 0  0.07338729919678716 0.01799385040160642 0  0.03838729919678716 0.01200614959839357 0  0.07717482110586968 0.01780301674207099 0  0.04771860040890012 0.01773306039388322 0  0.03125 0.01160380747126437 0  0.06875000000000001 0.01154265873015873 0  0.07625000000000001 0.01154065860215054 0  0.01625 0.01153997817696946 0  0.068125 0.018125 0  0.05437500000000001 0.015625 0  0.066875 0.015625 0  0.07039794950204951 0.01494384850614853 0  0.05687500000000001 0.018125 0  0.006875 0.015625 0  0.008749999999999999 0.01833333333333333 0  0.010625 0.015625 0  0.05625 0.01416666666666667 0  0.05812500000000001 0.015625 0  0.0449088595298192 0.01494528408816316 0  0 0.016875 0  0 0.013125 0  0.04962452342047931 0.01478673066448802 0  0.0153754765795207 0.01521326933551198 0  0.0771774565913315 0.01322498191305479 0  0.01857756431135545 0.01840228599899994 0  0.04642243568864456 0.01159771400100006 0  0.08125000000000002 0.01155637254901961 0  0.08317650804863432 0.0118234919513657 0  0.08288217288011697 0.01511353252923977 0  0.02837253504384828 0.0117177464035174 0  0.03896057962520807 0.01831163685754031 0  0.01125 0.0114244162490927 0  0.00935910490099115 0.0119067901980177 0  0.02946078431372549 0.01495404411764706 0  0.02875 0.0185829434466942 0  0.002968749999999999 0.0225 0  0.064375 0.016875 0  0.00296875 0.0075 0  0 0.001875 0  0 0.005625 0  0 0.009375 0  0 0.020625 0  0 0.024375 0  0 0.028125 0  0.06062500000000001 0.01812500000000001 0  0.008303571428571429 0.01446428571428572 0  0.01375 0.01865917058160413 0  0.05137790313978056 0.01143372888932909 0  0.04125000000000001 0.01131513063942604 0  0.04101690263896279 0.01844430285842771 0  0.02399563533148224 0.01844349395710867 0  0.08125000000000002 0.01868815426145731 0  0.05354684380692146 0.01145463537600848 0  0.01699195823639423 0.01315138909884649 0  0.07598357371794873 0.015 0  0.04098357371794872 0.015 0  0.003744047619047619 0.00375 0  0.003344630281690141 0.02580853873239437 0  0.04625 0.0187354532243972 0  0.06388392857142858 0.01138392857142858 0  0.06375 0.01375 0  0.05875 0.01375 0  0.06375 0.02 0  0.00622802734375 0.01372802734375 0  0.003630681818181818 0.001369318181818182 0  0.003630681818181818 0.02863068181818182 0  0.06125 0.01625 0  0.06125 0.01125 0  0.05625000000000001 0.01 0  0.05875 0.01125 0  0.06125 0.01375 0  0.08337864763241221 0.0183786476324122 0  0.05213634138653413 0.01674432930673294 0  0.04375000000000001 0.01 0  0.07424178685897437 0.01529258578431373 0  0.03924178685897436 0.01529258578431372 0  0.03410139294454583 0.01843406022904556 0  0.03089860705545417 0.01843406022904556 0  0.02094160484316717 0.01850229584291991 0  0.04375000000000001 0.02 0  0.04437042160883325 0.01820701498672512 0  0.04816311705429156 0.01600061344661149 0  0.07151224904251052 0.0114127410511319 0  0.04395528506193162 0.01639387970349481 0  0.0128750358694518 0.0167500179347259 0  0.02855808448399799 0.01642839899839741 0  0.02812690373330794 0.01340955081400569 0  0.08358500641945087 0.01351822349116885 0  0.05590277777777778 0.01173611111111111 0  0.06683110430364615 0.01164926404662283 0  0.02573206694914602 0.01842532451809762 0  0.01438126661842046 0.01166701193099454 0  0.02384283211216029 0.01526549696571563 0  0.03625 0.02 0  0.004609375000000001 0.0182421875 0  0.003398437500000001 0.01943359375 0  0.001728307845744682 0.01894718251329787 0  0.004377805359085963 0.01656966216675735 0  0.04649673309852075 0.0153889662370871 0  0.03615513600614297 0.01592654988586041 0  0.03316985071935832 0.01598763605018279 0  0.03110111603888768 0.01529816275177977 0  0.01370614113484869 0.0138804542047638 0  0.04930041102671841 0.01842260568883502 0  0.07875000000000001 0.02 0  0.0745395359848485 0.01165101111925709 0  0.03860755698543604 0.01373741558556884 0  0.02605038706571737 0.01573944002207753 0  0.07559826163500957 0.01841729376139847 0  0.04437500000000001 0.01149157931286774 0  0.06874116707361365 0.01454618473032123 0  0.003761917372881356 0.0239307468220339 0  0.003984374999999999 0.01125 0  0.003768503289473684 0.01392539576480263 0  0.001796875 0.0111328125 0  0.003761917372881356 0.008930746822033899 0  0.005 0.00625 0  0.003761917372881355 0.0210692531779661 0  0.06633928571428571 0.01410714285714285 0  0.006484375 0.01125 0  0.08364120589325512 0.01657288979763549 0  0.03576267476503373 0.0184116442851204 0  0.07370875846579374 0.0137848203678562 0  0.06964285714285715 0.01758928571428571 0  0.05520833333333334 0.01833333333333333 0  0.06491071428571429 0.01839285714285714 0  0.0510098951944636 0.01559941474766356 0  0.01786087179886325 0.0115702210443714 0  0.01972197383235524 0.01160576093166696 0  0.01804697593127788 0.01433503795474974 0  0.001644074528704677 0.01642892723865279 0  0.00125 0.03 0  0.001497685185185185 0.001267746913580247 0  0.07315451164202422 0.01643443118912983 0  0.001233906745910645 0.0140625 0  0.01162635071030191 0.01362229857939618 0  0.01528023503083844 0.01845923557506155 0  0.06625 0.02 0  0.07695012019230771 0.01624387078484555 0  0.03139091092855769 0.01320776147621796 0  0.03857339107781042 0.01675295051810485 0  0.001754993120977522 0.02590789105493891 0  0.002288757784711197 0.00412546923654445 0  0.07914382119690884 0.01404430049871201 0  0.001391810103286306 0.01257390899021902 0  0.0419501201923077 0.01614675005432421 0  0.001484375 0.007018229166666667 0  0.001484375 0.02201822916666666 0  0.048
[...]
<PointData  Scalars="pressure"> 
<DataArray  type="Float64"  Name="pressure"  format="ascii">-1.2018085995722039e-05  3.0624622572725745e-03  1.9566668974460057e-03  9.5921248535295323e-04  1.1128823201279438e-03  4.5169652634336068e-04  3.0465386796427901e-03  -1.1564269808354203e-05  3.0464056182269712e-03  3.1925743787619659e-03  3.2304760150805001e-03  1.4952145742801873e-03  1.4953573514148947e-03  2.2446608838900964e-03  2.2446431485359845e-03  7.4508261659928334e-04  7.4548945848729425e-04  1.8698647574219821e-03  1.8696463018163583e-03  3.6966296514894361e-04  3.7084421927573223e-04  2.6196880737014423e-03  2.6186916122889520e-03  1.1189763693142121e-03  1.1198434352583074e-03  5.5807702753326281e-04  5.5806180102834163e-04  1.3078850989237578e-03  2.0570690731601163e-03  2.0571711900720067e-03  1.6827140081898575e-03  2.8064441228689411e-03  2.4317929556519121e-03  9.3277297701119895e-04  -1.6816558480980431e-20  1.3074228902875383e-03  4.6410804594118106e-04  1.6833204604460904e-03  1.7760791611790582e-03  1.2138368993208502e-03  2.4317080386461630e-03  2.8095834288409277e-03  2.1507349206286324e-03  2.7125193204929833e-03  1.8280364155629712e-04  1.8134497948188953e-04  1.9634190216199872e-03  1.5730453259017525e-03  7.4527192968231132e-04  3.3006682368589609e-03  2.9767220179217754e-03  2.3536463677509018e-03  2.6108503874564866e-04  3.3545946297588868e-03  9.3254125701841268e-04  9.3181449351068001e-04  2.5331113115654651e-03  1.3933983229186403e-03  6.0472337910938087e-04  2.8526704797383140e-03  1.0733803416276347e-03  3.2908792594492763e-03  3.0991874070658214e-03  3.0835546195650634e-03  3.3434554839690714e-03  1.2877545438184850e-04  6.5145288150112899e-04  2.8988031324507241e-03  8.3896975801607142e-04  1.0264809448225594e-03  8.3897827767748115e-04  1.0561135585433640e-04  6.4486259516241529e-04  2.5252819641216331e-03  2.4784729442151568e-03  1.3998143055070917e-03  1.4708820803102157e-03  3.0386706741497931e-03  4.5492248056791277e-03  4.4807965190695282e-03  3.0469211372234051e-03  2.6106023613845014e-03  1.3156969978043828e-03  1.9627325714241524e-03  1.8794145339794325e-03  1.7755819357595365e-03  2.0474500591736132e-03  2.1504551905100595e-03  1.2139038461287275e-03  2.7127996128965708e-03  1.6745838129220158e-03  1.7764777072114758e-03  2.3377861882662157e-03  2.2521895887620451e-03  3.6258094965429334e-04  4.6413907470695202e-04  3.6253673114839909e-04  4.6289245597995682e-04  1.6746288293140788e-03  2.3381206037172827e-03  2.2912679195917899e-03  1.5885623638603275e-03  1.5893895281929335e-03  2.7853603634624754e-04  2.7701468666684151e-04  1.2939873379961063e-03  5.3705507345442791e-04  1.1357839307719875e-03  3.3078102785263786e-03  3.5097809160509327e-03  2.7599395262199690e-03  2.6326671276592382e-03  2.8055085112663925e-03  1.8228262126885361e-03  3.1275741055416663e-03  1.1670505131012598e-03  5.1096066024586110e-04  3.4261674842960715e-03  3.2616445311673408e-03  2.1862813704667992e-03  3.1526106700850527e-03  2.0648602667812811e-03  1.2130981562376529e-03  2.2179687242914381e-04  2.4338030698296742e-03  2.0735280010255637e-04  1.4927745910139935e-03  6.9844545795746135e-04  2.9492337173094149e-03  1.0275688566979307e-03  9.7973982780631143e-04  3.2291279628464840e-03  3.1923461578440573e-03  3.4753670301737086e-03  3.3961588320131518e-03  1.4012325486331648e-03  2.5237747270525743e-03  1.9634014510010365e-03  1.9166698176439931e-03  1.5844448278193590e-03  -3.5998762199102329e-07  8.9213357776567420e-05  2.3860235434877068e-03  6.5087264229208566e-04  2.7135086315648585e-03  2.1619213633548187e-03  1.7891792759366083e-03  -3.3017468129063393e-07  2.1495704406467330e-03  3.0305571252199196e-03  2.9025283572588910e-03  2.9065218959613615e-03  7.3520902241158345e-04  2.7007427059166081e-03  8.3901113674795288e-04  9.3278301795988192e-04  1.0264493028863235e-03  8.3846951755711132e-04  8.3733563757293654e-04  8.9594519090514208e-05  1.5849012267234251e-03  2.3417498682398600e-03  4.4778718051517448e-04  2.9824148392220578e-03  1.8592070150526623e-03  1.9633999680770771e-03  2.2321949217414525e-03  1.7950277395612071e-04  2.4364310445565648e-03  1.3718854953033101e-03  2.5546598945357778e-03  1.2606258670049668e-03  1.2148665911323835e-03  4.3073651989307204e-04  1.7427906621616720e-03  2.8884083785255562e-04  1.3928274485187186e-03  2.0101719799450858e-03  6.0473656724375103e-04  3.2352030594065822e-04  2.5720108870036285e-03  6.2816786552354097e-04  1.1436033741664931e-03  6.7499690438974200e-04  5.4293621504214375e-04  1.0501431783358920e-03  2.9188373889248117e-03  2.8555445017361875e-03  2.7826687365380010e-03  1.0733402273223841e-03  1.0030909396643289e-03  1.4983493656639557e-03  3.0610027351716819e-03  3.0542064045058406e-03  1.3215751080193235e-03  2.6048939921127913e-03  2.8875040473083381e-04  2.4848348672981040e-03  1.4415736064072589e-03  1.3561036913403783e-04  6.3388206992178169e-05  7.6675164403822364e-05  2.1179642416032352e-03  1.7214345782849848e-03  2.7591687631977509e-03  2.8298416945596815e-03  2.0772739438728173e-03  2.1038489033800836e-03  3.2290401246487708e-03  7.6868841168441563e-04  3.1932979884240287e-03  3.2812299596446460e-03  3.2539243165745045e-03  3.1337089293098567e-03  3.1588129726451853e-03  3.2979699453343585e-03  3.3096758129439558e-03  9.0933100071865006e-04  2.8676137136125824e-03  2.6662456938196600e-03  1.2558453704916667e-03  1.6355835463530927e-03  1.6443780727149293e-03  2.2819364428580662e-03  1.3543014327019076e-04  1.1746732113105214e-03  2.5442831142073723e-03  3.3351110294488795e-04  1.6455283971750629e-03  3.3588214953251478e-03  3.3922845056830729e-03  1.4480008008688294e-03  7.8706425287281175e-04  7.9212502274455968e-04  9.7963046318541688e-04  7.9144440235464210e-04  2.9403429539583935e-03  3.6359368688991022e-03  3.7067516607456412e-03  8.8589644710341500e-04  8.8583914923586761e-04  1.0737408359849181e-03  9.7960891344250618e-04  8.8589589402618028e-04  5.4999809075435317e-05  1.2274584734806328e-03  1.5409797487456385e-03  3.9879531493304201e-04  1.7108180611699459e-03  1.9033871369407388e-03  2.0235492111310271e-03  2.3964240405364924e-03  1.5413341526568940e-03  1.5185860297938002e-03  1.3763133126120538e-03  5.0120496343265179e-04  1.5341035808936253e-03  2.6987860199111954e-03  2.1110947895947615e-03  2.1272390328453024e-03  5.0672140228686917e-05  1.0862992849334889e-03  6.7654359129819209e-04  2.2170311165077643e-03  2.6418777503094313e-03  2.2877409100681917e-03  1.8238598762604381e-03  3.0193163623661303e-03  3.0906048986861037e-03  3.0992317987021184e-03  3.0025611425584702e-03  1.4388140942536846e-03  1.8264894368775781e-03  1.9383221558151513e-03  2.0158255761520377e-03  2.6672925919343639e-03  1.3335945022455804e-03  2.2957700120661306e-04  3.8762588371553971e-04  1.7345622354702813e-03  2.2050455848976391e-03  3.4785637026797032e-04  1.5183760621860583e-03  6.0504824111410900e-04  3.2967656249695341e-03  3.0397763965888469e-03  3.0088397391694627e-03  3.0801634038597789e-03  3.1324977470038261e-03  3.2443144681055989e-03  3.1593901527794833e-03  6.9506358167709212e-04  2.9431000448552312e-03  4.8565492047658491e-05  1.8413348836440761e-03  4.1879330141886506e-04  5.7127601301616205e-04  1.1123851836256644e-03  7.4856823433321485e-04  1.2696554788412114e-03  2.5117746195115506e-03  2.4420643727633040e-03  2.5048033496489273e-03  3.0503670102646685e-03  3.4588737036483782e-03  3.3111548151310002e-03  4.3953618861485309e-04  3.0443892028438682e-03  2.7450135327105460e-03  2.6086048905432746e-03  6.9912860377297978e-04  2.9727270345018657e-04  2.0049521926966264e-03  1.7358921678495007e-03  3.3645528252472410e-03  3.3165275831020433e-03  2.1513084406392456e-04  3.0567061268916532e-03  1.6092920981008319e-03  3.2101698459470894e-03  3.2101995563298914e-03  1.3466257426792306e-03  1.3178798268079807e-03  2.5799239599195267e-03  1.2533972325987318e-03  1.4345161456443128e-03  2.4920122705291976e-03  1.5368241950851355e-03  2.3979554074970246e-03  1.6092867870046296e-03  1.1758383197878848e-03  1.6880127468058162e-03  2.6602023175162333e-03  2.3917881820573368e-03  2.3425885031189827e-03  2.2419379978739526e-03  2.2914175231824011e-03  2.1981510668866700e-03  2.3337795983953834e-03  5.9135176322831426e-04  5.0253485161195154e-04  2.6575543851880108e-04  3.2656682495235331e-03  3.2700226324486881e-03  3.1623085919444678e-03  2.0644219731709313e-03  3.3819943865039184e-03  2.1809805633240999e-03  1.8733613255436021e-03  5.3876847007329064e-04  6.5158229490968798e-04  1.1202133717436401e-03  6.7499413184947063e-04  4.7846181902171770e-04  2.8148843782798130e-03  1.8658283915687747e-03  1.8217665854980284e-03  1.7904107457663262e-03  2.8933993973085928e-03  2.9570422624113418e-03  9.4059602794290692e-04  7.2185034030941466e-04  1.0031287789459130e-03  1.2062303119536504e-03  1.8109660861561053e-03  2.7599652225346791e-03  8.1561840410323248e-04  2.7945860326475313e-03  2.7212793280385543e-03  2.9191010990787941e-03  5.0456504646487004e-04  1.0265686803340212e-03  1.2671401695251664e-04  1.9119889647190252e-03  2.8525532654865679e-03  5.5319463299707578e-04  1.1253444863176796e-03  1.5552870736187827e-04  2.0610353569658341e-04  2.2425165065239263e-04  3.2805914784446565e-03  1.1670863457385328e-03  1.6936873652610343e-04  2.2795329741354565e-04  1.9041368882061449e-04  2.5715435294130086e-03  1.3543287239423337e-03  3.0766602020153950e-03  1.9865226894931359e-03  5.5427297263042712e-04  2.9605992558646137e-03  2.8528589981880468e-03  2.8771260462020793e-03  2.3033357111849769e-03  2.4784909708719252e-03  2.2310475025526474e-03  1.0737134183591527e-03  7.9213061087307851e-04  6.0545454543608926e-04  8.8620458531469876e-04  2.3014553718973306e-03  1.4203350321270220e-03  2.7861188522405127e-03  1.7767243232594278e-03  3.3201413351411817e-03  3.3090282677132221e-03  3.5114519067843825e-03  4.1650982368517271e-04  2.5757774721339335e-03  2.0388499797941943e-03  3.0852111095970823e-03  2.8271344436112478e-03  1.5652609754381228e-03  2.3848615348828449e-03  3.0272441622845809e-03  1.7772613353814941e-06  2.4467403788075812e-05  8.6414392857029785e-04  9.5460089300691971e-04  4.1749553188580497e-04  1.7290278484454534e-03  5.8720511781145822e-04  1.9550484347232626e-03  1.9589871304465591e-03  1.9175827058841822e-03  2.4292814539404535e-03  2.4839387411165550e-03  1.0276054148670012e-03  2.1624139598657569e-03  1.5683118690796741e-03  1.7945730925778220e-03  1.7795489058705096e-03  2.3524851341380445e-03  4.3180250719615434e-04  2.6889896761265208e-03  2.1577797191544685e-03  2.2055964410801591e-03  2.1510484931386671e-03  1.8346257518707374e-03  2.7384407806456514e-03  7.4015650574528339e-04  7.4024321269922143e-04  6.9001961170036283e-04  3.1124116239706085e-03  1.1830879281193960e-03  3.0333195669015509e-03  2.3878005450721400e-03  2.3288075528538174e-03  5.1061014334780877e-04  3.2401311645954741e-04  1.3536332825962896e-03  2.1980635750278739e-03  5.1141107862622437e-04  1.9163025829045707e-03  8.3900698505827941e-04  6.9788803391823760e-04  7.9227568050950145e-04  1.1677153860900067e-03  1.3488099752429118e-04  2.2907101211730864e-03  1.2605501607033842e-03  1.6354392310991795e-03  1.7289883152112515e-03  1.3507352368843513e-04  3.2339735092094536e-04  6.0475532878135382e-04  1.2606434852578644e-03  1.6357642100775231e-03  3.2872179676804426e-03  -3.2407835769472925e-08  1.0264950658096775e-03  8.3908777687232772e-04  2.6661921515738233e-03  2.7591602888663762e-03  2.8560131184885706e-03  2.5720161048755114e-03  3.1416940841924902e-03  2.6648263591134412e-03  4.2268601526111865e-03  3.3631592870516413e-03  3.5349277110946421e-03  4.1109717126404620e-03  3.4747921504433990e-03  2.9507175767254086e-03  2.9780499979076688e-03  3.1708434259667120e-03  2.0266473894815204e-08  2.3851414727258471e-03  8.3900659047073014e-04  3.4273147167644649e-03  2.1036517782709657e-03  2.1043638167746446e-03  2.4783082239228137e-03  2.0098188794598032e-03  3.6568533803798273e-03  2.2356846660879403e-06  2.0110887378636945e-03  1.1594526018706064e-03  8.8589357576359675e-04  9.3276875479316455e-04  9.7961135063811232e-04  9.3280028788549768e-04  9.7944117148777337e-04  8.8592320045695729e-04  8.8782274611145433e-04  1.4492207704775173e-03  1.4479167481739024e-03  9.7992553478461219e-04  2.5880044515898298e-05  1.6328465618737731e-03  2.5268702288393913e-04  1.3777467182298979e-03  1.6313831571545944e-03  1.4588731761156428e-03  2.9802989242033429e-03  2.2874126853482807e-03  1.0889419900199752e-03  6.5076078430901109e-04  3.9395127378448371e-04  8.9321548207727878e-05  1.5377501002858925e-03  4.9118544841113656e-04  1.0963141448769571e-03  3.1262882864191914e-03  3.0448400192380370e-03  1.9780702219658539e-03  1.9195263086715152e-03  2.5583308506695545e-04  3.2217915389780483e-03  3.0693761544098216e-04  3.4379917967762028e-03  3.1358652365795023e-03  2.0853395585512494e-03  1.0473323733151702e-03  5.6162741758433732e-04  1.1288306497057726e-03  7.8047727037604904e-04  1.7154726740945800e-04  2.4403311785470192e-03  1.2714502789745192e-03  3.0096775621761777e-03  3.3171247440313082e-03  2.6582413711959112e-03  4.0624095884588766e-04  3.8010803078631549e-04  1.6957874533276691e-03  2.9915371767059739e-03  2.9409853678540412e-03  3.0147547898402589e-03  1.3519155229285689e-03  1.8677169734870626e-03  8.8287029649035523e-05  2.0108437094883344e-03  2.2475001056732925e-03  7.9704427592652599e-04  1.0847105141648778e-03  2.3743091404476706e-03  3.8863853501577416e-04  2.5264748529262230e-03  1.3874514935502767e-03  1.3777961649656400e-03  2.5350190865302698e-03  4.6147062676422208e-04  2.7729861710015023e-03  1.4349637902862171e-03  1.7534795247944853e-03  2.7436191922605938e-03  1.7996408259582483e-04  3.2274673647094798e-04  1.4131202392969687e-04  2.4397083525385579e-03  2.4528779682461647e-03  2.9090136264635614e-03  3.7263163555346823e-03  6.3118573082741132e-04  4.6908102866830660e-04  1.7110044442932763e-03  2.9435031236195548e-03  1.9055228402214215e-03  3.2455286654917387e-03  1.9144493053346579e-03  1.2152381058424166e-03  2.2026285977216997e-03  2.0640219243843500e-03  2.5709383012718369e-03  9.7484660385294833e-05  1.6068101476176162e-03  2.9729262392116256e-04  1.4790395933095047e-03  2.6400058613547188e-03  3.5779836027158597e-03  1.7523105493450243e-03  4.4031015126629367e-04  2.2662135677777302e-03  2.4769423704789441e-04  1.2982749481391909e-03  2.8884977946669874e-03  3.0769454487170039e-03  8.5071272562447925e-05  3.9017687393960325e-05  1.2840049499480014e-03  1.9717620955541715e-03  1.1753127271531758e-03  1.2544322533073347e-03  1.7057915069300421e-03  5.7983907041221248e-04  2.3970419919422540e-03  2.6700617073891690e-03  3.2346262432094539e-03  3.1781235820430823e-03  3.2469509794346299e-03  2.7070840700287669e-03  7.2175072562759626e-04  2.9834620676277217e-03  2.8294153753408648e-03  2.8833278653792524e-03  2.8541288343638875e-03  3.9955627953966596e-04  3.3361074735189996e-04  1.7468872432266185e-03  1.3294855289583182e-03  1.2146189711456752e-03  1.9834165532567503e-03  1.8225662198910776e-03  1.2372562544821599e-03  1.6818165648920737e-03  1.6792651991584188e-03  3.2918652106106896e-03  2.5972360525745282e-03  1.8359975505736609e-03  5.0261431201393549e-04  2.1973376233792286e-03  2.1234096392190728e-03  1.7726329677247303e-03  2.0900618604507348e-03  2.4549942643990186e-03  3.1742488686692582e-03  3.0605976349174311e-03  1.9400814739490378e-03  3.3084250429402731e-03  2.0402455989423939e-03  2.0335156052564258e-03  3.2109778643797291e-03  3.1843501472551645e-03  3.1771435175276903e-03  1.4775734613731775e-03  1.4872617202695278e-03  2.5126914025655808e-03  2.0015305574865752e-03  1.5706122546464911e-03  3.2736249762096489e-03  3.1553000047726655e-03  1.8289641759099741e-03  2.8297279072476240e-03  3.0711244285147486e-03  3.0733970825258792e-03  2.2922104762118059e-04  1.2935521482662830e-03  2.3234109491072118e-03  1.2455524509912019e-04  1.5901659575438316e-04  1.1128452993108645e-04  1.5358011960810809e-03  1.4993743874264862e-03  1.4748978878853702e-03  1.2882185319296681e-03  6.2272995689976356e-04  6.2818039900943876e-04  3.0509724031011808e-03  1.3079168579756737e-03  2.6260406545037720e-03  2.5659020282841325e-03  1.3563450644282495e-03  3.0005640144058188e-04  3.5716633519468664e-04  3.5413660632304192e-04  3.1800300124709306e-04  2.5486191397399854e-03  2.6055639623170593e-03  2.5953569613645913e-03  1.7515358636779081e-03  7.7858790624258788e-04  9.0934605751090750e-04  8.0612762259880510e-04  2.8159669460181753e-03  6.2819261513351017e-04  7.5698653027806253e-04  1.0500869025408838e-03  6.6327523478560205e-04  6.1644797595878493e-04  1.1789751581371337e-03  2.9220583021439019e-03  2.7831112231520485e-03  1.0029138342413251e-03  2.8805649992545497e-03  6.8671491826089457e-04  7.1013228530977411e-04  7.3354618827563669e-04  1.0149495872367258e-03  9.7967224028490223e-04  9.4264273871207712e-04  8.7604517296600783e-04  9.7048162046690814e-04  9.2160651777756480e-04  2.1557456733602853e-04  3.0988172330243014e-05  1.4112028022225857e-03  1.0969417163907563e-03  2.6113093220307969e-04  1.6394490157774031e-03  2.1136566782083183e-03  2.0512040743101735e-03  2.7920443722128686e-03  2.1221326150604809e-03  2.3650535788153565e-03  2.4656253026756744e-03  1.8726619680902059e-03  2.8643643829087814e-03  2.7225479624130361e-03  2.3214490206667647e-04  5.8139307834405665e-04  2.2816603397780824e-03  2.2460234659479918e-03  1.9868359034265937e-03  9.9969437390311542e-05  6.3250396460558752e-05  2.6628659311686074e-05  1.4873384800185897e-03  2.7576614149252077e-03  1.6092873770310729e-03  1.6597977047245571e-03  1.6477234848725282e-03  3.3527677090968843e-04  1.8890288603274185e-03  1.5730653964544700e-03  1.6691846238218087e-03  1.4146370426255652e-03  2.5025380144079747e-05  2.0866477136583235e-03  2.1273451085136253e-03  2.1504441226280887e-03  3.3494091707544794e-03  3.0745739574448601e-03  1.0968003618507583e-03  1.0607633635184059e-03  2.6430447116200761e-04  2.5717253373901145e-03  1.9019545306954320e-03  2.5410201253681340e-03  1.7113400141080805e-04  3.2366111873644758e-03  2.4083529590531046e-03  2.2684866804868389e-03  1.3437226940762753e-03  3.2255581714341285e-03  1.5521033569281984e-03  1.5316452760837801e-03  1.5078307495909572e-03  2.8197614820090391e-03  2.7355725045021565e-03  3.2561576290858949e-03  2.4713393684846316e-03  2.7055357153888816e-03  2.0805212049444669e-03  1.4120014165792873e-03  2.9999138034260035e-04  1.2045432440754590e-03  1.4480927392322571e-04  2.4765490112079380e-03  3.1918316383115338e-03  3.2652487176004089e-03  3.1060578821080599e-03  7.8041830843923147e-04  3.2802766399960032e-03  3.1624554004735517e-03  3.0670042135685495e-03  3.0465252787770271e-03  3.3437779957241867e-03  3.0778873519030333e-03  3.3247921864261228e-03  2.3375832450963185e-03  5.7615486330355836e-04  2.6400265166919134e-03  4.6768618783926767e-04  3.3396503232348005e-03  2.5422173191776698e-03  2.5116887282881843e-03  1.6128041228222116e-03  2.3165601235335498e-03  2.3111049538168805e-03  2.2677717290377317e-03  3.6996124012389096e-04  1.9803879118687629e-04  2.4737397905303365e-03  3.5750221064543673e-05  7.1620176378719405e-05  8.0980003890789533e-05  1.7054693487836060e-03  1.7051360921336548e-03  3.4373900531693680e-03  1.8390738442134627e-03  2.8348355876428614e-03  1.6790170541810178e-03  2.6347349237755393e-03  2.6898337776665214e-03  4.1647469673620531e-04  3.9382392826135180e-04  3.3190214144098147e-03  2.1595588722706041e-03  2.7518182486958032e-03  1.4566211072183997e-03  1.2273731713143519e-03  1.2753728589283517e-03  1.0939445277655457e-04  1.0535571846138491e-03  1.6014799373538057e-03  1.6119213022028878e-03  1.3430548190044426e-03  1.5887461790542470e-04  2.0926121329727545e-03  2.8857610601156205e-03  2.5063568418291029e-03  2.0337386510892851e-03  1.8931976733188407e-03  1.9370186633927166e-03  3.0225829529725882e-03  3.0436590224381670e-03  3.1018084113479771e-03  1.1869224070810095e-03  1.146