<?xml version="1.0"?>
<VTKFile type="UnstructuredGrid"  version="0.1"  >
<UnstructuredGrid>
<Piece  NumberOfPoints="1079" NumberOfCells="1944">
<Points>
<DataArray  type="Float64"  NumberOfComponents="3"  format="ascii">0.08500000000000001 0.02 0  0.005 0.02 0  0.005 0.03 0  0 0.03 0  0 0 0  0.005 0 0  0.005 0.01 0  0.08500000000000001 0.01 0  0 0.015 0  0 0.0075 0  0 0.0225 0  0.04500000000000001 0.02 0  0.04500000000000001 0.01 0  0.025 0.01 0  0.025 0.02 0  0.065 0.02 0  0.065 0.01 0  0.035 0.02 0  0.035 0.01 0  0.07500000000000001 0.02 0  0.07500000000000001 0.01 0  0.015 0.02 0  0.015 0.01 0  0.05500000000000001 0.01 0  0.05500000000000001 0.02 0  0.07000000000000001 0.01 0  0.07000000000000001 0.02 0  0.05 0.01 0  0.03 0.01 0  0.03 0.02 0  0.04000000000000001 0.01 0  0.01 0.01 0  0.02 0.02 0  0.06 0.015 0  0.08500000000000001 0.015 0  0.05 0.02 0  0.07250000000000001 0.015 0  0.04000000000000001 0.02 0  0.03750000000000001 0.015 0  0.0525 0.015 0  0.02 0.01 0  0.01 0.02 0  0.0275 0.015 0  0.0125 0.015 0  0.08000000000000002 0.01 0  0.08000000000000002 0.02 0  0.0325 0.014375 0  0.04291666666666667 0.015 0  0.065 0.015 0  0.005 0.005 0  0.005 0.015 0  0.02208333333333334 0.015 0  0.07791666666666668 0.015 0  0.005 0.025 0  0.06 0.01 0  0.06 0.02 0  0.01729166666666667 0.01572916666666667 0  0.04770833333333334 0.01427083333333334 0  0.06875000000000001 0.01625 0  0.008750000000000001 0.01625 0  0.05625000000000001 0.01625 0  0 0.00375 0  0 0.01875 0  0 0.01125 0  0 0.02625 0  0.08145833333333334 0.01354166666666667 0  0.0675 0.01 0  0.0075 0.0125 0  0.0625 0.0175 0  0.0575 0.0125 0  0.0625 0.0125 0  0.08207465277777778 0.01707465277777778 0  0.06767857142857144 0.01321428571428571 0  0.0175 0.01 0  0.01875 0.01291382575757576 0  0.0475 0.02 0  0.04564168086314595 0.01679860519591141 0  0.00296875 0.0125 0  0.0025 0.03 0  0.0025 0 0  0.00296875 0.0175 0  0.01521990740740741 0.0132349537037037 0  0.0497800925925926 0.0167650462962963 0  0.0325 0.02 0  0.03474264705882353 0.01674632352941176 0  0.03750000000000001 0.02 0  0.03025735294117647 0.01674632352941176 0  0.0275 0.02 0  0.0525 0.02 0  0.0125 0.01 0  0.04020833333333334 0.01322916666666667 0  0.03750000000000001 0.01 0  0.0225 0.02 0  0.02479166666666667 0.01677083333333333 0  0.07520833333333335 0.01322916666666667 0  0.07250000000000001 0.01 0  0.07520833333333335 0.01677083333333334 0  0.07250000000000001 0.02 0  0.04020833333333334 0.01677083333333333 0  0.0225 0.01 0  0.02375 0.01262152777777778 0  0.04250000000000001 0.02 0  0.04250000000000001 0.01 0  0.07750000000000001 0.01 0  0.07750000000000001 0.02 0  0.05036151960784314 0.01294424019607843 0  0.0705560064935065 0.01284699675324675 0  0.05458333333333334 0.01291666666666666 0  0.0021875 0.024375 0  0.005 0.0275 0  0.01125 0.0175 0  0.01463848039215686 0.01705575980392157 0  0.01 0.01375 0  0.03625 0.0125 0  0.0021875 0.009375 0  0.05375000000000001 0.0175 0  0.07125000000000001 0.0175 0  0.005 0.0025 0  0.0021875 0.005625 0  0.02655220103578155 0.01234889948210923 0  0.002187499999999999 0.020625 0  0.02979166666666667 0.01302083333333333 0  0.0525 0.01 0  0.07895833333333334 0.0125 0  0.01994277885235332 0.01704213007736944 0  0.07934656179076068 0.01733823814273861 0  0.04505722114764669 0.01295786992263056 0  0.06625 0.0175 0  0.006250000000000001 0.0175 0  0.05750000000000001 0.02 0  0.05875000000000001 0.0175 0  0.005 0.0225 0  0.005 0.0075 0  0.002375 0.027375 0  0.002375 0.002625000000000001 0  0.0475 0.01 0  0.0175 0.02 0  0.0325 0.01 0  0.03375 0.0121875 0  0.04261299435028249 0.01749205508474576 0  0.08500000000000001 0.0125 0  0.08250000000000002 0.01 0  0.02121963399965531 0.01224824108143494 0  0.0675 0.02 0  0.0125 0.02 0  0.02720152243589744 0.0175 0  0.03715165441176471 0.0175 0  0.08500000000000001 0.0175 0  0.0275 0.01 0  0.0025 0.0149560546875 0  0.0075 0.01 0  0.0075 0.02 0  0.06526785714285716 0.0125 0  0.01281031447005516 0.0125 0  0.0625 0.015 0  0.06 0.0125 0  0.05750000000000001 0.01 0  0.0625 0.02 0  0.0625 0.01 0  0.08250000000000002 0.02 0  0.04260103740101855 0.01252623201412851 0  0.02240052247582197 0.01750164767101344 0  0.07293583459427785 0.01238479732953041 0  0.005234374999999999 0.012265625 0  0.03528131980640358 0.01454684009679821 0  0.0325 0.01760027210036557 0  0.02532593822924343 0.01428227733767297 0  0.08009952069819683 0.01527145502895417 0  0.01987282359856536 0.01482587683689801 0  0.04828232595121382 0.01210233572595705 0  0.01671767404878618 0.01789766427404295 0  0.05125 0.01829007549029352 0  0.05247215456215357 0.01288882122882024 0  0.07338729919678716 0.01799385040160642 0  0.03838729919678716 0.01200614959839357 0  0.07717482110586968 0.01780301674207099 0  0.04771860040890012 0.01773306039388322 0  0.03125 0.01160380747126437 0  0.06875000000000001 0.01154265873015873 0  0.07625000000000001 0.01154065860215054 0  0.01625 0.01153997817696946 0  0.068125 0.018125 0  0.05437500000000001 0.015625 0  0.066875 0.015625 0  0.07039794950204951 0.01494384850614853 0  0.05687500000000001 0.018125 0  0.006875 0.015625 0  0.008749999999999999 0.01833333333333333 0  0.010625 0.015625 0  0.05625 0.01416666666666667 0  0.05812500000000001 0.015625 0  0.0449088595298192 0.01494528408816316 0  0 0.016875 0  0 0.013125 0  0.04962452342047931 0.01478673066448802 0  0.0153754765795207 0.01521326933551198 0  0.0771774565913315 0.01322498191305479 0  0.01857756431135545 0.01840228599899994 0  0.04642243568864456 0.01159771400100006 0  0.08125000000000002 0.01155637254901961 0  0.08317650804863432 0.0118234919513657 0  0.08288217288011697 0.01511353252923977 0  0.02837253504384828 0.0117177464035174 0  0.03896057962520807 0.01831163685754031 0  0.01125 0.0114244162490927 0  0.00935910490099115 0.0119067901980177 0  0.02946078431372549 0.01495404411764706 0  0.02875 0.0185829434466942 0  0.002968749999999999 0.0225 0  0.064375 0.016875 0  0.00296875 0.0075 0  0 0.001875 0  0 0.005625 0  0 0.009375 0  0 0.020625 0  0 0.024375 0  0 0.028125 0  0.06062500000000001 0.01812500000000001 0  0.008303571428571429 0.01446428571428572 0  0.01375 0.01865917058160413 0  0.05137790313978056 0.01143372888932909 0  0.04125000000000001 0.01131513063942604 0  0.04101690263896279 0.01844430285842771 0  0.02399563533148224 0.01844349395710867 0  0.08125000000000002 0.01868815426145731 0  0.05354684380692146 0.01145463537600848 0  0.01699195823639423 0.01315138909884649 0  0.07598357371794873 0.015 0  0.04098357371794872 0.015 0  0.003744047619047619 0.00375 0  0.003344630281690141 0.02580853873239437 0  0.04625 0.0187354532243972 0  0.06388392857142858 0.01138392857142858 0  0.06375 0.01375 0  0.05875 0.01375 0  0.06375 0.02 0  0.00622802734375 0.01372802734375 0  0.003630681818181818 0.001369318181818182 0  0.003630681818181818 0.02863068181818182 0  0.06125 0.01625 0  0.06125 0.01125 0  0.05625000000000001 0.01 0  0.05875 0.01125 0  0.06125 0.01375 0  0.08337864763241221 0.0183786476324122 0  0.05213634138653413 0.01674432930673294 0  0.04375000000000001 0.01 0  0.07424178685897437 0.01529258578431373 0  0.03924178685897436 0.01529258578431372 0  0.03410139294454583 0.01843406022904556 0  0.03089860705545417 0.01843406022904556 0  0.02094160484316717 0.01850229584291991 0  0.04375000000000001 0.02 0  0.04437042160883325 0.01820701498672512 0  0.04816311705429156 0.01600061344661149 0  0.07151224904251052 0.0114127410511319 0  0.04395528506193162 0.01639387970349481 0  0.0128750358694518 0.0167500179347259 0  0.02855808448399799 0.01642839899839741 0  0.02812690373330794 0.01340955081400569 0  0.08358500641945087 0.01351822349116885 0  0.05590277777777778 0.01173611111111111 0  0.06683110430364615 0.01164926404662283 0  0.02573206694914602 0.01842532451809762 0  0.01438126661842046 0.01166701193099454 0  0.02384283211216029 0.01526549696571563 0  0.03625 0.02 0  0.004609375000000001 0.0182421875 0  0.003398437500000001 0.01943359375 0  0.001728307845744682 0.01894718251329787 0  0.004377805359085963 0.01656966216675735 0  0.04649673309852075 0.0153889662370871 0  0.03615513600614297 0.01592654988586041 0  0.03316985071935832 0.01598763605018279 0  0.03110111603888768 0.01529816275177977 0  0.01370614113484869 0.0138804542047638 0  0.04930041102671841 0.01842260568883502 0  0.07875000000000001 0.02 0  0.0745395359848485 0.01165101111925709 0  0.03860755698543604 0.01373741558556884 0  0.02605038706571737 0.01573944002207753 0  0.07559826163500957 0.01841729376139847 0  0.04437500000000001 0.01149157931286774 0  0.06874116707361365 0.01454618473032123 0  0.003761917372881356 0.0239307468220339 0  0.003984374999999999 0.01125 0  0.003768503289473684 0.01392539576480263 0  0.001796875 0.0111328125 0  0.003761917372881356 0.008930746822033899 0  0.005 0.00625 0  0.003761917372881355 0.0210692531779661 0  0.06633928571428571 0.01410714285714285 0  0.006484375 0.01125 0  0.08364120589325512 0.01657288979763549 0  0.03576267476503373 0.0184116442851204 0  0.07370875846579374 0.0137848203678562 0  0.06964285714285715 0.01758928571428571 0  0.05520833333333334 0.01833333333333333 0  0.06491071428571429 0.01839285714285714 0  0.0510098951944636 0.01559941474766356 0  0.01786087179886325 0.0115702210443714 0  0.01972197383235524 0.01160576093166696 0  0.01804697593127788 0.01433503795474974 0  0.001644074528704677 0.01642892723865279 0  0.00125 0.03 0  0.001497685185185185 0.001267746913580247 0  0.07315451164202422 0.01643443118912983 0  0.001233906745910645 0.0140625 0  0.01162635071030191 0.01362229857939618 0  0.01528023503083844 0.01845923557506155 0  0.06625 0.02 0  0.07695012019230771 0.01624387078484555 0  0.03139091092855769 0.01320776147621796 0  0.03857339107781042 0.01675295051810485 0  0.001754993120977522 0.02590789105493891 0  0.002288757784711197 0.00412546923654445 0  0.07914382119690884 0.01404430049871201 0  0.001391810103286306 0.01257390899021902 0  0.0419501201923077 0.01614675005432421 0  0.001484375 0.007018229166666667 0  0.001484375 0.02201822916666666 0  0.048
[...]
<PointData  Scalars="pressure"> 
<DataArray  type="Float64"  Name="pressure"  format="ascii">-1.0784926462170387e-04  2.7494363640479226e-02  1.7523541099483009e-02  8.8814683162547065e-03  1.0359812425243212e-02  4.2520997251491001e-03  2.7363489883959390e-02  -1.0377092872129597e-04  2.7357711157318009e-02  2.8684567154913937e-02  2.8997918062062616e-02  1.3427220192119733e-02  1.3428493408246586e-02  2.0157383229449526e-02  2.0157215739367011e-02  6.6909028297778891e-03  6.6945420065793945e-03  1.6791645672010441e-02  1.6789667065556312e-02  3.3195569794481649e-03  3.3301660584156576e-03  2.3525037670830449e-02  2.3516377797410573e-02  1.0048514372121240e-02  1.0056309400438257e-02  5.0115483361663181e-03  5.0113997322900035e-03  1.1744954232860785e-02  1.8472764948886135e-02  1.8473689166476723e-02  1.5110985759546516e-02  2.5203011763620324e-02  2.1837829469201788e-02  8.3763824905977464e-03  -2.3543181873372605e-19  1.1740811072374960e-02  4.1676880362137118e-03  1.5116430923935342e-02  1.5949423892165988e-02  1.0900388134255120e-02  2.1837112336100056e-02  2.5229667043053353e-02  1.9313899737372419e-02  2.4358828577332462e-02  1.6415237208865080e-03  1.6284144301747685e-03  1.7631769819627326e-02  1.4126142741693543e-02  6.6925902235934615e-03  2.9654610010090277e-02  2.6731641222586942e-02  2.1136081173279524e-02  2.3445075769635924e-03  3.0097097406716348e-02  8.3743138461926814e-03  8.3677732276470716e-03  2.2747692422658922e-02  1.2512880886541317e-02  5.4304391393812570e-03  2.5616977906863798e-02  9.6390629520621586e-03  2.9589004133504071e-02  2.7825512943593984e-02  2.7697336226374075e-02  3.0017518074389536e-02  1.1563568260791954e-03  5.8500831683517890e-03  2.6032942039352872e-02  7.5340117416319175e-03  9.2178979215941561e-03  7.5340886085565467e-03  9.4834064380884629e-04  5.7908971227474508e-03  2.2677459536679326e-02  2.2257071910727937e-02  1.2570480822031492e-02  1.3208698162082807e-02  2.7291595839346539e-02  4.0256773738752132e-02  3.9691955662778403e-02  2.7358642914041345e-02  2.3443664036340399e-02  1.1815110045736404e-02  1.7625592018267407e-02  1.6877394418748675e-02  1.5944946476443407e-02  1.8386382920519129e-02  1.9311382820005205e-02  1.0900989900169532e-02  2.4361648871002700e-02  1.5037977167625073e-02  1.5953009510484398e-02  2.0993640460697512e-02  2.0224978359514104e-02  3.2559569442017766e-03  4.1679504836387637e-03  3.2555602466705718e-03  4.1567662087123695e-03  1.5038380646086718e-02  2.0996665479627516e-02  2.0575917172146949e-02  1.4265477481513571e-02  1.4272905912914323e-02  2.5011985900226267e-03  2.4875502281993074e-03  1.1620152727230356e-02  4.8227656595155825e-03  1.0199457845964115e-02  2.9687874419095983e-02  3.1453355719286730e-02  2.4784301127223466e-02  2.3641636241239609e-02  2.5194192752429873e-02  1.6369221281293471e-02  2.8095861763330239e-02  1.0480238651046303e-02  4.5884312206218962e-03  3.0769034649386830e-02  2.9308755550926168e-02  1.9633114401243199e-02  2.8301516827909115e-02  1.8542730192353821e-02  1.0893755360947695e-02  1.9916897940711535e-03  2.1855885855430475e-02  1.8619809522300516e-03  1.3405297274866907e-02  6.2720802729101712e-03  2.6482736116113549e-02  9.2276673103196469e-03  8.7981515985369324e-03  2.8983087949920629e-02  2.8680409550760788e-02  3.1176428493305874e-02  3.0522288829652994e-02  1.2583233089954654e-02  2.2663797041005414e-02  1.7631623648552395e-02  1.7211953830290054e-02  1.4228512318848374e-02  -3.2299911803950216e-06  8.0094395225859287e-04  2.1426848581205075e-02  5.8448671481649500e-03  2.4367380071983857e-02  1.9414354219276682e-02  1.6067064140925118e-02  -2.9628014499189980e-06  1.9303437216367982e-02  2.7215364714483319e-02  2.6066831168354412e-02  2.6099094799762593e-02  6.6022235470905221e-03  2.4253283773352195e-02  7.5343843396955996e-03  8.3764739364417789e-03  9.2176108782273010e-03  7.5295002977332388e-03  7.5193325835962903e-03  8.0437203476247038e-04  1.4232610437372844e-02  2.1029239494722237e-02  4.0211235017113788e-03  2.6785308405106279e-02  1.6695926913457230e-02  1.7631597690345585e-02  2.0045426084512940e-02  1.6118917267882156e-03  2.1879503932300585e-02  1.2319692050370602e-02  2.2941151333322730e-02  1.1320562919481181e-02  1.0909634557251871e-02  3.8680053405318947e-03  1.5650487854855444e-02  2.5937564895244314e-03  1.2507751934101478e-02  1.8051622244844138e-02  5.4305593835662488e-03  2.9051852337510149e-03  2.3097119036537054e-02  5.6409743109552338e-03  1.0269678670991983e-02  6.0615081898108747e-03  4.8755791766846232e-03  9.4303888724795257e-03  2.6211295656014540e-02  2.5642168558200118e-02  2.4988659058933053e-02  9.6387025133396718e-03  9.0078506224030575e-03  1.3455359610931096e-02  2.7485850104329249e-02  2.7430607200512894e-02  1.1867895976536777e-02  2.3392319633552785e-02  2.5929452087350836e-03  2.2314139250373385e-02  1.2945502017650917e-02  1.2177118162769100e-03  5.6915561278417161e-04  6.8851255144153996e-04  1.9019614536055135e-02  1.5458706096251492e-02  2.4778195906650688e-02  2.5413179228630928e-02  1.8654207168240355e-02  1.8892855472591844e-02  2.8983164569069603e-02  6.9028747403272776e-03  2.8689644701858950e-02  2.9484855347678706e-02  2.9242719057826140e-02  2.8151463606432583e-02  2.8357389425775533e-02  2.9603807136251607e-02  2.9707675999285879e-02  8.1658675063401038e-03  2.5751872467596491e-02  2.3943072961114826e-02  1.1277625671288725e-02  1.4687743550939981e-02  1.4766716265634531e-02  2.0492107674304878e-02  1.2160902257960513e-03  1.0548691954061881e-02  2.2848075436694312e-02  2.9949050365182727e-03  1.4777053994843931e-02  3.0174414062513821e-02  3.0433225400245095e-02  1.3003217612292218e-02  7.0678947461398902e-03  7.1133387778819406e-03  8.7971716549572077e-03  7.1072280135043419e-03  2.6405806501010390e-02  3.2631478540378143e-02  3.3177355418195054e-02  7.9554226642643885e-03  7.9549036238833557e-03  9.6423043803936410e-03  8.7969773934674245e-03  7.9554176890938456e-03  4.9382419121745422e-04  1.1022712879634671e-02  1.3838185444183819e-02  3.5811684338775710e-03  1.5363367312668009e-02  1.7092673686006928e-02  1.8171747521326581e-02  2.1520214168779042e-02  1.3841372587149669e-02  1.3637089191804628e-02  1.2359454195045827e-02  4.5008161022118739e-03  1.3776438832877137e-02  2.4235336507004161e-02  1.8957923852180189e-02  1.9102903330748981e-02  4.5501011099932296e-04  9.7550762423610302e-03  6.0753977969768957e-03  1.9909248028218168e-02  2.3724605381283077e-02  2.0544237651810966e-02  1.6378498779866239e-02  2.7110313595249111e-02  2.7747503132350530e-02  2.7825597562594059e-02  2.6961909432078553e-02  1.2920722160951803e-02  1.6402117220321970e-02  1.7406395098709233e-02  1.8102389805736568e-02  2.3952759972644469e-02  1.1975834255671409e-02  2.0615379083241039e-03  3.4808646685216744e-03  1.5576594597512431e-02  1.9801618482805372e-02  3.1237282000815369e-03  1.3635202687026764e-02  5.4333566927895014e-03  2.9585341562512711e-02  2.7302686923459468e-02  2.7021521171098722e-02  2.7666878893419334e-02  2.8140126054139288e-02  2.9148524855632074e-02  2.8361070836609180e-02  6.2417105009618902e-03  2.6431803542952027e-02  4.3609252875958095e-04  1.6535431863520401e-02  3.7607537677787728e-03  5.1300749869205168e-03  9.9893355689096158e-03  6.7221939112872492e-03  1.1401648940203214e-02  2.2556150829407817e-02  2.1930117557663258e-02  2.2493508913430958e-02  2.7391081632643192e-02  3.0980807291212543e-02  2.9841710514403489e-02  3.9470282922508719e-03  2.7340990128442173e-02  2.4650826448585648e-02  2.3425528946006868e-02  6.2782101626395019e-03  2.6694780646031556e-03  1.8004745736821464e-02  1.5588537472387743e-02  3.0199045227800664e-02  2.9805631692962860e-02  1.9318327548972769e-03  2.7453897056443011e-02  1.4451645159788999e-02  2.8843689079721537e-02  2.8816110797352412e-02  1.2092855036755563e-02  1.1834711807792560e-02  2.3168043631431670e-02  1.1255646606108402e-02  1.2882126179102497e-02  2.2378604719494235e-02  1.3800870512098362e-02  2.1533978516418611e-02  1.4451597614014187e-02  1.0559154081615202e-02  1.5158572451138021e-02  2.3888967178923678e-02  2.1478608613501510e-02  2.1036786418070320e-02  2.0132924653898262e-02  2.0577264606083553e-02  1.9739700999926967e-02  2.0957685193717285e-02  5.3103604188101871e-03  4.5127676129405299e-03  2.3864335599816581e-03  2.9312726477840275e-02  2.9380409808482569e-02  2.8410295714612580e-02  1.8538788130483888e-02  3.0410045262995438e-02  1.9585511868117102e-02  1.6823034189204222e-02  4.8381476932719252e-03  5.8512407807176630e-03  1.0059632637165581e-02  6.0614780997148435e-03  4.2965802167791445e-03  2.5277519378904840e-02  1.6755378020758736e-02  1.6359701243182950e-02  1.6078125303079664e-02  2.5982089391700290e-02  2.6551460898421763e-02  8.4466341929603211e-03  6.4822605888154644e-03  9.0081870128332353e-03  1.0832081319869702e-02  1.6262714705123780e-02  2.4784423912013534e-02  7.3243126530708191e-03  2.5095146744503326e-02  2.4437166480414229e-02  2.6212027527722771e-02  4.5309989626101275e-03  9.2186851852391633e-03  1.1378495674309581e-03  1.7169918358786149e-02  2.5617018034992292e-02  4.9677045934354838e-03  1.0105710305718709e-02  1.3965945254102597e-03  1.8507525582687528e-03  2.0137385710498903e-03  2.9486754313980377e-02  1.0480559987006900e-02  1.5208805311637305e-03  2.0469790572869542e-03  1.7098604048078709e-03  2.3092729786762582e-02  1.2162031500268096e-02  2.7624888430852843e-02  1.7839244189798986e-02  4.9773850401956090e-03  2.6585670774571312e-02  2.5620196724889719e-02  2.5838316503753130e-02  2.0684278166546017e-02  2.2257249460536453e-02  2.0035123675551311e-02  9.6420659224260939e-03  7.1133891730887572e-03  5.4370120343201732e-03  7.9582084241569678e-03  2.0667399419538837e-02  1.2754775808504799e-02  2.5020222430688938e-02  1.5955218003203896e-02  2.9832804202099182e-02  2.9751792035252453e-02  3.1475061317244708e-02  3.7402500765547192e-03  2.3130885440525929e-02  1.8309153447482067e-02  2.7712913236044176e-02  2.5388072687846222e-02  1.4056235828559950e-02  2.1416418321436304e-02  2.7183937857668896e-02  1.5961936583771447e-05  2.1948855370049002e-04  7.7600773241728628e-03  8.5723961280281692e-03  3.7491007340772582e-03  1.5526894380319014e-02  5.2731202846772471e-03  1.7556600967059074e-02  1.7591972946691622e-02  1.7220143544176114e-02  2.1815314705350222e-02  2.2306122337797517e-02  9.2279954393768987e-03  1.9418776352674676e-02  1.4083630552987496e-02  1.6115496011968565e-02  1.5980582766954000e-02  2.1125647658989152e-02  3.8775755478556609e-03  2.4147771120586178e-02  1.9377162412391759e-02  1.9806563935329428e-02  1.9316709874289000e-02  1.6475183086062321e-02  2.4591466464646126e-02  6.6466482710069710e-03  6.6474313288045475e-03  6.1964148145598153e-03  2.7958678795691902e-02  1.0624257301625434e-02  2.7241975591016175e-02  2.1442779539646965e-02  2.0913009220054003e-02  4.5852851644849644e-03  2.9096183881921083e-03  1.2155794158535091e-02  1.9738909613500989e-02  4.5924811657769536e-03  1.7208662487564058e-02  7.5343470460483017e-03  6.2670684590763037e-03  7.1147028281841199e-03  1.0486220518634577e-02  1.2111793902522155e-03  2.0570895833677494e-02  1.1319878372125076e-02  1.4686456231471523e-02  1.5526551398776471e-02  1.2128965359633971e-03  2.9040881958900758e-03  5.4307295668771247e-03  1.1320721608769294e-02  1.4689370320712342e-02  2.9499936321291886e-02  -2.9034536733554806e-07  9.2180212035154682e-03  7.5350677191129405e-03  2.3942584430748468e-02  2.4778159835299091e-02  2.5646263778961141e-02  2.3097173564276714e-02  2.8222848499922532e-02  2.3930739205353910e-02  3.7389885994531032e-02  3.0210750920599782e-02  3.1711024899717409e-02  3.6569745890741391e-02  3.1136163117793596e-02  2.6500096598072148e-02  2.6740136878344711e-02  2.8462829906346375e-02  1.8154719797885751e-07  2.1418891264372825e-02  7.5343433944334423e-03  3.0737505195832963e-02  1.8891084578186237e-02  1.8897484312066011e-02  2.2255529444288588e-02  1.8048446625395575e-02  3.2710845958927356e-02  2.0078646157218778e-05  1.8059844992418320e-02  1.0412004176914924e-02  7.9553969266774570e-03  8.3763447572382348e-03  8.7970006025266893e-03  8.3766320237087036e-03  8.7954714198717719e-03  7.9556627680167965e-03  7.9727174181782393e-03  1.3014171443885177e-02  1.3002465250603720e-02  8.7998023212690988e-03  2.3218403120616187e-04  1.4663169712627431e-02  2.2690898826896733e-03  1.2372328640448517e-02  1.4650026534840639e-02  1.3100856497499562e-02  2.6765269870421608e-02  2.0541294426101017e-02  9.7788091917877275e-03  5.8438635590528721e-03  3.5376648169940846e-03  8.0205906398740157e-04  1.3809185407144316e-02  4.4108472419201704e-03  9.8450126550372261e-03  2.8067170004376470e-02  2.7343192794079315e-02  1.7763332366615547e-02  1.7237605499453509e-02  2.2973371879817400e-03  2.8946061437360636e-02  2.7562690390477654e-03  3.0873464793987074e-02  2.8152506515747223e-02  1.8726637573635518e-02  9.4051471694418416e-03  5.0434298712254081e-03  1.0137010761604491e-02  7.0087409140973710e-03  1.5404491548303750e-03  2.1914502746044274e-02  1.1417767155571523e-02  2.7027575793393464e-02  2.9775824260578895e-02  2.3871534324841698e-02  3.6480314492006488e-03  3.4133533984224964e-03  1.5228389772735938e-02  2.6867829675223671e-02  2.6412367017851168e-02  2.7076385176405600e-02  1.2140358940565128e-02  1.6772348014923614e-02  7.9278065566562811e-04  1.8057650673946508e-02  2.0182867519691665e-02  7.1575141318617102e-03  9.7408116449942284e-03  2.1321649373000524e-02  3.4899605393212694e-03  2.2688047717468150e-02  1.2459477404358564e-02  1.2372770458452736e-02  2.2764800269680058e-02  4.1440034528233234e-03  2.4901927428364279e-02  1.2886144078900380e-02  1.5746476996712007e-02  2.4638425586620105e-02  1.6160314256818706e-03  2.8982391452276428e-03  1.2689393021659420e-03  2.1908924436088387e-02  2.2027211185339072e-02  2.6123774570708001e-02  3.3363231918603312e-02  5.6680759582236132e-03  4.2123471415030679e-03  1.5365041772868782e-02  2.6433383806953127e-02  1.7111849789200658e-02  2.9164976481730519e-02  1.7192012668154066e-02  1.0912972222614160e-02  1.9779912569271859e-02  1.8535202783254968e-02  2.3087310073935673e-02  8.7534558336912842e-04  1.4429358817551724e-02  2.6696569178809621e-03  1.3281953919008022e-02  2.3707657873442776e-02  3.2095580305621957e-02  1.5735976488469364e-02  3.9539879283462783e-03  2.0350921585286997e-02  2.2242538237681924e-03  1.1658657741277291e-02  2.5939905523255750e-02  2.7638348031070112e-02  7.6390387793618211e-04  3.5036129734690669e-04  1.1530512332143868e-02  1.7706691815010580e-02  1.0554434671412819e-02  1.1264941087378794e-02  1.5318231400099188e-02  5.2069735517848298e-03  2.1525782590182851e-02  2.3977379257836367e-02  2.9062984770664713e-02  2.8553099099542362e-02  2.9144135592078940e-02  2.4310120867549224e-02  6.4813740063676380e-03  2.6789895960401853e-02  2.5407666226141507e-02  2.5891231006536244e-02  2.5629721132875802e-02  3.5880020240653190e-03  2.9957995266040750e-03  1.5687275180836069e-02  1.1938933425696668e-02  1.0907411139048239e-02  1.7811353004330354e-02  1.6366886021049729e-02  1.1110699644368817e-02  1.5102929829215538e-02  1.5080017489716819e-02  2.9624424066375974e-02  2.3323473757897634e-02  1.6698488036770116e-02  4.5134811572759307e-03  1.9732400607287759e-02  1.9068512657299745e-02  1.5918476622130577e-02  1.8769045416002220e-02  2.2046173652523322e-02  2.8495177539233672e-02  2.7490185811817728e-02  1.7422197316845207e-02  2.9726862138957411e-02  1.8321686789452642e-02  1.8261252152114518e-02  2.8821302660196405e-02  2.8584458212535802e-02  2.8543258460983378e-02  1.3268787600661702e-02  1.3355794049957828e-02  2.2564291119271437e-02  1.7974018274851039e-02  1.4104293271410658e-02  2.9380958088699987e-02  2.8346382309677044e-02  1.6424340190718409e-02  2.5412274764604718e-02  2.7575051607931035e-02  2.7594562259415152e-02  2.0583613243016271e-03  1.1616244843288796e-02  2.0864559565136949e-02  1.1184488353661955e-03  1.4279001118372105e-03  9.9924685388690050e-04  1.3791683753831777e-02  1.3464564561283424e-02  1.3244761022070116e-02  1.1568348005941680e-02  5.5921426721652267e-03  5.6410898398500759e-03  2.7397223481819607e-02  1.1745242759797216e-02  2.3582177611184588e-02  2.3042169731303474e-02  1.2180136153046367e-02  2.6944831444785503e-03  3.2073308133604649e-03  3.1801264937871103e-03  2.8556393976333881e-03  2.2887046614326560e-02  2.3398448718009640e-02  2.3306800672750511e-02  1.5729021286115735e-02  6.9917751237138556e-03  8.1660041325490717e-03  7.2390847666414350e-03  2.5287527302302049e-02  5.6412075696740914e-03  6.7977894233398756e-03  9.4298884667573801e-03  5.9562468217451443e-03  5.5357281125472113e-03  1.0587323565673528e-02  2.6239532691370346e-02  2.4992438548077592e-02  9.0062604184366381e-03  2.5867722459997865e-02  6.1667383121986044e-03  6.3770301447533271e-03  6.5872921883781211e-03  9.1143431349587443e-03  8.7975461613384216e-03  8.4650149261888477e-03  7.8669579338519618e-03  8.7150130023396586e-03  8.2761111225446802e-03  1.9358183685206538e-03  2.7825842262562886e-04  1.2672768615785911e-02  9.8506547601071789e-03  2.3449192734896155e-03  1.4911991342417852e-02  1.8980930402385680e-02  1.8420094920704507e-02  2.5073614771396632e-02  1.9057046270184369e-02  2.1238505173261042e-02  2.2141645821367319e-02  1.6816756738389511e-02  2.5723417371943020e-02  2.4449198000569539e-02  2.0846146192722089e-03  5.2209316968516882e-03  2.0489629403325542e-02  2.0169605147359458e-02  1.7842060876733786e-02  8.9765834684621393e-04  5.6782716088753921e-04  2.3911446819254264e-04  1.3356481237457050e-02  2.4763759800437487e-02  1.4451602957838532e-02  1.4905195257677202e-02  1.4796766160796060e-02  3.0107610371875415e-03  1.6963732367255905e-02  1.4126322921252691e-02  1.4989491885613911e-02  1.2703609656452775e-02  2.2468780087050511e-04  1.8738387709195746e-02  1.9103867411131455e-02  1.9311290478889648e-02  3.0051847635361569e-02  2.7615918994664215e-02  9.8493870057090715e-03  9.5257593880286040e-03  2.3734163796447893e-03  2.3094537833274659e-02  1.7079807512078254e-02  2.2818743943410456e-02  1.5367249443615524e-03  2.9127178188410381e-02  2.1627379826762782e-02  2.0371332898672153e-02  1.2066785117525505e-02  2.8983961465849251e-02  1.3938079553649006e-02  1.3754367394280469e-02  1.3540504973312755e-02  2.5322440175832003e-02  2.4566243152229821e-02  2.9223714243144624e-02  2.2192989820461570e-02  2.4295872387500181e-02  1.8683370126738253e-02  1.2679930737862281e-02  2.6938923809238674e-03  1.0816930136303244e-02  1.3003404218159089e-03  2.2239804329201418e-02  2.8652344678376431e-02  2.9309274688865579e-02  2.7901128363536393e-02  7.0082107314010135e-03  2.9483784847080939e-02  2.8411652451567217e-02  2.7547144390970352e-02  2.7360183231874998e-02  3.0048808235928461e-02  2.7635883143495309e-02  2.9848551496900549e-02  2.0991834693293885e-02  5.1738903102388628e-03  2.3707679576939089e-02  4.1998187990892558e-03  2.9968520629160271e-02  2.2829542753130438e-02  2.2555369654895144e-02  1.4483182624781427e-02  2.0803052955458014e-02  2.0754044086525234e-02  2.0364912345480018e-02  3.3222336151415709e-03  1.7783429978196058e-03  2.2214574210347896e-02  3.2101020857454868e-04  6.4310164774545751e-04  7.2704987770207780e-04  1.5315335651759686e-02  1.5312342229058976e-02  3.0833961181650976e-02  1.6515126911955329e-02  2.5457512322561535e-02  1.5077788392867733e-02  2.3660148379240912e-02  2.4154842014172916e-02  3.7399318465464845e-03  3.5365345905264073e-03  2.9818734107097088e-02  1.9393140969606360e-02  2.4711707376279420e-02  1.3080632533528352e-02  1.1021946538339241e-02  1.1452990395021154e-02  9.8232384500297103e-04  9.4610468230459308e-03  1.4381487597533413e-02  1.4475264876689809e-02  1.2060789309559993e-02  1.4266322302120280e-03  1.8791948307839080e-02  2.5913927261322165e-02  2.2507474399741659e-02  1.8263256807577250e-02  1.7001172985210550e-02  1.7394689186340496e-02  2.7138525072752547e-02  2.7328621350997048e-02  2.7862824046539999e-02  1.0658694946054360e-02  1.029