<?xml version="1.0"?>
<VTKFile type="UnstructuredGrid"  version="0.1"  >
<UnstructuredGrid>
<Piece  NumberOfPoints="1079" NumberOfCells="1944">
<Points>
<DataArray  type="Float64"  NumberOfComponents="3"  format="ascii">0.08500000000000001 0.02 0  0.005 0.02 0  0.005 0.03 0  0 0.03 0  0 0 0  0.005 0 0  0.005 0.01 0  0.08500000000000001 0.01 0  0 0.015 0  0 0.0075 0  0 0.0225 0  0.04500000000000001 0.02 0  0.04500000000000001 0.01 0  0.025 0.01 0  0.025 0.02 0  0.065 0.02 0  0.065 0.01 0  0.035 0.02 0  0.035 0.01 0  0.07500000000000001 0.02 0  0.07500000000000001 0.01 0  0.015 0.02 0  0.015 0.01 0  0.05500000000000001 0.01 0  0.05500000000000001 0.02 0  0.07000000000000001 0.01 0  0.07000000000000001 0.02 0  0.05 0.01 0  0.03 0.01 0  0.03 0.02 0  0.04000000000000001 0.01 0  0.01 0.01 0  0.02 0.02 0  0.06 0.015 0  0.08500000000000001 0.015 0  0.05 0.02 0  0.07250000000000001 0.015 0  0.04000000000000001 0.02 0  0.03750000000000001 0.015 0  0.0525 0.015 0  0.02 0.01 0  0.01 0.02 0  0.0275 0.015 0  0.0125 0.015 0  0.08000000000000002 0.01 0  0.08000000000000002 0.02 0  0.0325 0.014375 0  0.04291666666666667 0.015 0  0.065 0.015 0  0.005 0.005 0  0.005 0.015 0  0.02208333333333334 0.015 0  0.07791666666666668 0.015 0  0.005 0.025 0  0.06 0.01 0  0.06 0.02 0  0.01729166666666667 0.01572916666666667 0  0.04770833333333334 0.01427083333333334 0  0.06875000000000001 0.01625 0  0.008750000000000001 0.01625 0  0.05625000000000001 0.01625 0  0 0.00375 0  0 0.01875 0  0 0.01125 0  0 0.02625 0  0.08145833333333334 0.01354166666666667 0  0.0675 0.01 0  0.0075 0.0125 0  0.0625 0.0175 0  0.0575 0.0125 0  0.0625 0.0125 0  0.08207465277777778 0.01707465277777778 0  0.06767857142857144 0.01321428571428571 0  0.0175 0.01 0  0.01875 0.01291382575757576 0  0.0475 0.02 0  0.04564168086314595 0.01679860519591141 0  0.00296875 0.0125 0  0.0025 0.03 0  0.0025 0 0  0.00296875 0.0175 0  0.01521990740740741 0.0132349537037037 0  0.0497800925925926 0.0167650462962963 0  0.0325 0.02 0  0.03474264705882353 0.01674632352941176 0  0.03750000000000001 0.02 0  0.03025735294117647 0.01674632352941176 0  0.0275 0.02 0  0.0525 0.02 0  0.0125 0.01 0  0.04020833333333334 0.01322916666666667 0  0.03750000000000001 0.01 0  0.0225 0.02 0  0.02479166666666667 0.01677083333333333 0  0.07520833333333335 0.01322916666666667 0  0.07250000000000001 0.01 0  0.07520833333333335 0.01677083333333334 0  0.07250000000000001 0.02 0  0.04020833333333334 0.01677083333333333 0  0.0225 0.01 0  0.02375 0.01262152777777778 0  0.04250000000000001 0.02 0  0.04250000000000001 0.01 0  0.07750000000000001 0.01 0  0.07750000000000001 0.02 0  0.05036151960784314 0.01294424019607843 0  0.0705560064935065 0.01284699675324675 0  0.05458333333333334 0.01291666666666666 0  0.0021875 0.024375 0  0.005 0.0275 0  0.01125 0.0175 0  0.01463848039215686 0.01705575980392157 0  0.01 0.01375 0  0.03625 0.0125 0  0.0021875 0.009375 0  0.05375000000000001 0.0175 0  0.07125000000000001 0.0175 0  0.005 0.0025 0  0.0021875 0.005625 0  0.02655220103578155 0.01234889948210923 0  0.002187499999999999 0.020625 0  0.02979166666666667 0.01302083333333333 0  0.0525 0.01 0  0.07895833333333334 0.0125 0  0.01994277885235332 0.01704213007736944 0  0.07934656179076068 0.01733823814273861 0  0.04505722114764669 0.01295786992263056 0  0.06625 0.0175 0  0.006250000000000001 0.0175 0  0.05750000000000001 0.02 0  0.05875000000000001 0.0175 0  0.005 0.0225 0  0.005 0.0075 0  0.002375 0.027375 0  0.002375 0.002625000000000001 0  0.0475 0.01 0  0.0175 0.02 0  0.0325 0.01 0  0.03375 0.0121875 0  0.04261299435028249 0.01749205508474576 0  0.08500000000000001 0.0125 0  0.08250000000000002 0.01 0  0.02121963399965531 0.01224824108143494 0  0.0675 0.02 0  0.0125 0.02 0  0.02720152243589744 0.0175 0  0.03715165441176471 0.0175 0  0.08500000000000001 0.0175 0  0.0275 0.01 0  0.0025 0.0149560546875 0  0.0075 0.01 0  0.0075 0.02 0  0.06526785714285716 0.0125 0  0.01281031447005516 0.0125 0  0.0625 0.015 0  0.06 0.0125 0  0.05750000000000001 0.01 0  0.0625 0.02 0  0.0625 0.01 0  0.08250000000000002 0.02 0  0.04260103740101855 0.01252623201412851 0  0.02240052247582197 0.01750164767101344 0  0.07293583459427785 0.01238479732953041 0  0.005234374999999999 0.012265625 0  0.03528131980640358 0.01454684009679821 0  0.0325 0.01760027210036557 0  0.02532593822924343 0.01428227733767297 0  0.08009952069819683 0.01527145502895417 0  0.01987282359856536 0.01482587683689801 0  0.04828232595121382 0.01210233572595705 0  0.01671767404878618 0.01789766427404295 0  0.05125 0.01829007549029352 0  0.05247215456215357 0.01288882122882024 0  0.07338729919678716 0.01799385040160642 0  0.03838729919678716 0.01200614959839357 0  0.07717482110586968 0.01780301674207099 0  0.04771860040890012 0.01773306039388322 0  0.03125 0.01160380747126437 0  0.06875000000000001 0.01154265873015873 0  0.07625000000000001 0.01154065860215054 0  0.01625 0.01153997817696946 0  0.068125 0.018125 0  0.05437500000000001 0.015625 0  0.066875 0.015625 0  0.07039794950204951 0.01494384850614853 0  0.05687500000000001 0.018125 0  0.006875 0.015625 0  0.008749999999999999 0.01833333333333333 0  0.010625 0.015625 0  0.05625 0.01416666666666667 0  0.05812500000000001 0.015625 0  0.0449088595298192 0.01494528408816316 0  0 0.016875 0  0 0.013125 0  0.04962452342047931 0.01478673066448802 0  0.0153754765795207 0.01521326933551198 0  0.0771774565913315 0.01322498191305479 0  0.01857756431135545 0.01840228599899994 0  0.04642243568864456 0.01159771400100006 0  0.08125000000000002 0.01155637254901961 0  0.08317650804863432 0.0118234919513657 0  0.08288217288011697 0.01511353252923977 0  0.02837253504384828 0.0117177464035174 0  0.03896057962520807 0.01831163685754031 0  0.01125 0.0114244162490927 0  0.00935910490099115 0.0119067901980177 0  0.02946078431372549 0.01495404411764706 0  0.02875 0.0185829434466942 0  0.002968749999999999 0.0225 0  0.064375 0.016875 0  0.00296875 0.0075 0  0 0.001875 0  0 0.005625 0  0 0.009375 0  0 0.020625 0  0 0.024375 0  0 0.028125 0  0.06062500000000001 0.01812500000000001 0  0.008303571428571429 0.01446428571428572 0  0.01375 0.01865917058160413 0  0.05137790313978056 0.01143372888932909 0  0.04125000000000001 0.01131513063942604 0  0.04101690263896279 0.01844430285842771 0  0.02399563533148224 0.01844349395710867 0  0.08125000000000002 0.01868815426145731 0  0.05354684380692146 0.01145463537600848 0  0.01699195823639423 0.01315138909884649 0  0.07598357371794873 0.015 0  0.04098357371794872 0.015 0  0.003744047619047619 0.00375 0  0.003344630281690141 0.02580853873239437 0  0.04625 0.0187354532243972 0  0.06388392857142858 0.01138392857142858 0  0.06375 0.01375 0  0.05875 0.01375 0  0.06375 0.02 0  0.00622802734375 0.01372802734375 0  0.003630681818181818 0.001369318181818182 0  0.003630681818181818 0.02863068181818182 0  0.06125 0.01625 0  0.06125 0.01125 0  0.05625000000000001 0.01 0  0.05875 0.01125 0  0.06125 0.01375 0  0.08337864763241221 0.0183786476324122 0  0.05213634138653413 0.01674432930673294 0  0.04375000000000001 0.01 0  0.07424178685897437 0.01529258578431373 0  0.03924178685897436 0.01529258578431372 0  0.03410139294454583 0.01843406022904556 0  0.03089860705545417 0.01843406022904556 0  0.02094160484316717 0.01850229584291991 0  0.04375000000000001 0.02 0  0.04437042160883325 0.01820701498672512 0  0.04816311705429156 0.01600061344661149 0  0.07151224904251052 0.0114127410511319 0  0.04395528506193162 0.01639387970349481 0  0.0128750358694518 0.0167500179347259 0  0.02855808448399799 0.01642839899839741 0  0.02812690373330794 0.01340955081400569 0  0.08358500641945087 0.01351822349116885 0  0.05590277777777778 0.01173611111111111 0  0.06683110430364615 0.01164926404662283 0  0.02573206694914602 0.01842532451809762 0  0.01438126661842046 0.01166701193099454 0  0.02384283211216029 0.01526549696571563 0  0.03625 0.02 0  0.004609375000000001 0.0182421875 0  0.003398437500000001 0.01943359375 0  0.001728307845744682 0.01894718251329787 0  0.004377805359085963 0.01656966216675735 0  0.04649673309852075 0.0153889662370871 0  0.03615513600614297 0.01592654988586041 0  0.03316985071935832 0.01598763605018279 0  0.03110111603888768 0.01529816275177977 0  0.01370614113484869 0.0138804542047638 0  0.04930041102671841 0.01842260568883502 0  0.07875000000000001 0.02 0  0.0745395359848485 0.01165101111925709 0  0.03860755698543604 0.01373741558556884 0  0.02605038706571737 0.01573944002207753 0  0.07559826163500957 0.01841729376139847 0  0.04437500000000001 0.01149157931286774 0  0.06874116707361365 0.01454618473032123 0  0.003761917372881356 0.0239307468220339 0  0.003984374999999999 0.01125 0  0.003768503289473684 0.01392539576480263 0  0.001796875 0.0111328125 0  0.003761917372881356 0.008930746822033899 0  0.005 0.00625 0  0.003761917372881355 0.0210692531779661 0  0.06633928571428571 0.01410714285714285 0  0.006484375 0.01125 0  0.08364120589325512 0.01657288979763549 0  0.03576267476503373 0.0184116442851204 0  0.07370875846579374 0.0137848203678562 0  0.06964285714285715 0.01758928571428571 0  0.05520833333333334 0.01833333333333333 0  0.06491071428571429 0.01839285714285714 0  0.0510098951944636 0.01559941474766356 0  0.01786087179886325 0.0115702210443714 0  0.01972197383235524 0.01160576093166696 0  0.01804697593127788 0.01433503795474974 0  0.001644074528704677 0.01642892723865279 0  0.00125 0.03 0  0.001497685185185185 0.001267746913580247 0  0.07315451164202422 0.01643443118912983 0  0.001233906745910645 0.0140625 0  0.01162635071030191 0.01362229857939618 0  0.01528023503083844 0.01845923557506155 0  0.06625 0.02 0  0.07695012019230771 0.01624387078484555 0  0.03139091092855769 0.01320776147621796 0  0.03857339107781042 0.01675295051810485 0  0.001754993120977522 0.02590789105493891 0  0.002288757784711197 0.00412546923654445 0  0.07914382119690884 0.01404430049871201 0  0.001391810103286306 0.01257390899021902 0  0.0419501201923077 0.01614675005432421 0  0.001484375 0.007018229166666667 0  0.001484375 0.02201822916666666 0  0.048
[...]
<PointData  Scalars="pressure"> 
<DataArray  type="Float64"  Name="pressure"  format="ascii">-3.0819743986949959e-05  7.8541779611799069e-03  5.0155075495708374e-03  2.4766479154250507e-03  2.8762924086459837e-03  1.1712301313770940e-03  7.8140590198363339e-03  -2.9655630097837452e-05  7.8134402823844176e-03  8.1891827709889165e-03  8.2847856595043290e-03  3.8349192644769425e-03  3.8352849570089369e-03  5.7570977745249295e-03  5.7570517910283279e-03  1.9109823870938935e-03  1.9120250509773490e-03  4.7958213114497310e-03  4.7952600748931420e-03  9.4810622685969519e-04  9.5113597077513745e-04  6.7189574959630053e-03  6.7164189051839825e-03  2.8699431647913245e-03  2.8721674956138253e-03  1.4313502095621652e-03  1.4313104923348581e-03  3.3544562212175278e-03  5.2759620761076466e-03  5.2762243814720574e-03  4.3158167236151150e-03  7.1980009467212001e-03  6.2370517740500684e-03  2.3923695085918714e-03  -6.1660714430261591e-20  3.3532711729688403e-03  1.1903386354032200e-03  4.3173721011662671e-03  4.5552796181452804e-03  3.1132417823819085e-03  6.2368367092920842e-03  7.2059612519913101e-03  5.5161959835498724e-03  6.9570597699574821e-03  4.6884962282885693e-04  4.6510787692643531e-04  5.0357685525623183e-03  4.0345387788440169e-03  1.9114672269295676e-03  8.4663807575600276e-03  7.6346989406293362e-03  6.0366228857479205e-03  6.6962576129310427e-04  8.6021985321280293e-03  2.3917758799183670e-03  2.3899110858349500e-03  6.4969132691230971e-03  3.5737805173140015e-03  1.5509885814855211e-03  7.3164933221096639e-03  2.7529990683137196e-03  8.4426038767154345e-03  7.9484471274781834e-03  7.9090788936797517e-03  8.5748693615397518e-03  3.3027912516891392e-04  1.6708405829666867e-03  7.4349146255429117e-03  2.1517831364025121e-03  2.6327115838630961e-03  2.1518050076479241e-03  2.7086797813670043e-04  1.6539376003637104e-03  6.4768371023806110e-03  6.3567793779451282e-03  3.5902352805458424e-03  3.7725106661319631e-03  7.7938014409431227e-03  1.1631642872459019e-02  1.1459046327916911e-02  7.8145428648477323e-03  6.6956674084885388e-03  3.3744923642152645e-03  5.0340071975623008e-03  4.8203140019954680e-03  4.5540036501103684e-03  5.2512911551580044e-03  5.5154782510009881e-03  3.1134135193595920e-03  6.9577967773267217e-03  4.2949645282250619e-03  4.5563021774523383e-03  5.9959439337731830e-03  5.7764065705128986e-03  9.2994215934262862e-04  1.1904173107847634e-03  9.2982876984512293e-04  1.1872205799390585e-03  4.2950799425697872e-03  5.9968029495480911e-03  5.8766350980959600e-03  4.0743362292899824e-03  4.0764577572614423e-03  7.1438280778453051e-04  7.1048161898082211e-04  3.3188114325031727e-03  1.3774330439281295e-03  2.9130516437831655e-03  8.4828636037887397e-03  8.9979569780368890e-03  7.0786610410051038e-03  6.7522487621877979e-03  7.1955763722728805e-03  4.6751763930278339e-03  8.0221726956758097e-03  2.9932441859977770e-03  1.3105060352687999e-03  8.7874868365614492e-03  8.3665679602665851e-03  5.6073655232881693e-03  8.0852447541058681e-03  5.2959448530862582e-03  3.1113471275456888e-03  5.6885937983514230e-04  6.2422076349575896e-03  5.3181333601525936e-04  3.8286605600555057e-03  1.7913667916929798e-03  7.5640753172482086e-03  2.6355018436603431e-03  2.5128299053115096e-03  8.2811641786981437e-03  8.1884719153109391e-03  8.9116530630528341e-03  8.7119286435632937e-03  3.5938736933921454e-03  6.4729637898608772e-03  5.0357241394606549e-03  4.9158662986866870e-03  4.0637761997035548e-03  -9.2314084172194717e-07  2.2880259440521275e-04  6.1196646693434699e-03  1.6693520874351104e-03  6.9595773691791714e-03  5.5448868442913683e-03  4.5888787036542766e-03  -8.4670654000863485e-07  5.5132090409587978e-03  7.7727908221572354e-03  7.4444952879485094e-03  7.4545237927324251e-03  1.8856579037730280e-03  6.9268677272100948e-03  2.1518893210007873e-03  2.3923953330700419e-03  2.6326302667583302e-03  2.1504990463994044e-03  2.1475916986053371e-03  2.2978048712546809e-04  4.0649467469634736e-03  6.0061102325720183e-03  1.1484788981053361e-03  7.6494518450866507e-03  4.7684857766717038e-03  5.0357196252196462e-03  5.7251244930082617e-03  4.6038414699520685e-04  6.2489489554217060e-03  3.5186044705290812e-03  6.5521779869736913e-03  3.2332461184203715e-03  3.1158827119214683e-03  1.1047473869630279e-03  4.4699013768159561e-03  7.4081360537398759e-04  3.5723162054768767e-03  5.1556805902021911e-03  1.5510225078559721e-03  8.2975948875474122e-04  6.5966888624399804e-03  1.6111189258066188e-03  2.9331069831038726e-03  1.7312259942353083e-03  1.3925169739562829e-03  2.6934004262432923e-03  7.4862054050258845e-03  7.3238279359148133e-03  7.1369714602127514e-03  2.7528961717364227e-03  2.5727208956661742e-03  3.8429587234504146e-03  7.8507037349269618e-03  7.8336171411110562e-03  3.3895684989642327e-03  6.6810216989863815e-03  7.4058170886738735e-04  6.3730926220789547e-03  3.6973403044325997e-03  3.4780796958408663e-04  1.6257336576962764e-04  1.9665383970341360e-04  5.4321458912054855e-03  4.4151273173968731e-03  7.0767328325334446e-03  7.2580141400386839e-03  5.3277834220337838e-03  5.3959428447055684e-03  8.2809910239503830e-03  1.9715257920702688e-03  8.1909540903173494e-03  8.4168386558738460e-03  8.3469632910660365e-03  8.0379373936513912e-03  8.1011627876853929e-03  8.4578840187420849e-03  8.4878806247334210e-03  2.3322454704031484e-03  7.3548614120500198e-03  6.8383647686007538e-03  3.2209846884758923e-03  4.1949364830582599e-03  4.2174924592668171e-03  5.8527010773833585e-03  3.4734555126038710e-04  3.0127948735731223e-03  6.5255701517384400e-03  8.5538390222793942e-04  4.2204432355530432e-03  8.6153853681782914e-03  8.6987273687077551e-03  3.7138246615779163e-03  2.0186562068733862e-03  2.0316359146866775e-03  2.5125495287190037e-03  2.0298903351325995e-03  7.5414453422743381e-03  9.3243120128928998e-03  9.5004764443826009e-03  2.2721406649770090e-03  2.2719934557883245e-03  2.7539238935935439e-03  2.5124942165462979e-03  2.2721392459837211e-03  1.4105870193432545e-04  3.1481784012334824e-03  3.9522969004168532e-03  1.0228246932785501e-03  4.3878980636577166e-03  4.8817989430815258e-03  5.1899902216543210e-03  6.1463378973481680e-03  3.9532061277161214e-03  3.8948617201884925e-03  3.5299609026735214e-03  1.2854842390192384e-03  3.9346610632703602e-03  6.9218268362454174e-03  5.4145270270903236e-03  5.4559338282752249e-03  1.2996185891853452e-04  2.7861334855075991e-03  1.7351929383656987e-03  5.6862321336436658e-03  6.7758873965971921e-03  5.8675886539770140e-03  4.6778272507160433e-03  7.7437170921892595e-03  7.9263796362091365e-03  7.9485424132737671e-03  7.7008655216726811e-03  3.6902627721955416e-03  4.6845717965481055e-03  4.9714001384340506e-03  5.1701807667523351e-03  6.8410668480129218e-03  3.4203959279868186e-03  5.8881278377557686e-04  9.9417734267732700e-04  4.4487970953078059e-03  5.6554918248850799e-03  8.9217662125448400e-04  3.8943231421171508e-03  1.5518218000483606e-03  8.4543333628782913e-03  7.7967073096904156e-03  7.7171608557319062e-03  7.9003810445195596e-03  8.0348045349906156e-03  8.3218447589854336e-03  8.1025543101796507e-03  1.7826929666422060e-03  7.5485912031856449e-03  1.2455875945576752e-04  4.7226473620700657e-03  1.0741154808606428e-03  1.4652027962334003e-03  2.8530387316967479e-03  1.9199217105124011e-03  3.2564051647285402e-03  6.4421928726903300e-03  6.2633988111922599e-03  6.4243106730829799e-03  7.8234694168588144e-03  8.8670132398285875e-03  8.4991127514243911e-03  1.1273167798845681e-03  7.8083511874522567e-03  7.0404124139039348e-03  6.6905325707494112e-03  1.7931186483571783e-03  7.6243974496821457e-04  5.1422927836919210e-03  4.4522080943705756e-03  8.6284996123806041e-03  8.5075716063660201e-03  5.5176264833053067e-04  7.8400786567730269e-03  4.1275044248104851e-03  8.2343778965081466e-03  8.2327965687542526e-03  3.4538183110393176e-03  3.3800908555168267e-03  6.6169761919139336e-03  3.2147060255717972e-03  3.6792394224664038e-03  6.3915018751023933e-03  3.9416388935867488e-03  6.1502662810712892e-03  4.1274908113065343e-03  3.0157830992604004e-03  4.3294070908268985e-03  6.8228745296721495e-03  6.1344493608035200e-03  6.0082621040728037e-03  5.7501137515726126e-03  5.8770190306758887e-03  5.6378085977285778e-03  5.9856692953362770e-03  1.5166931309994289e-03  1.2888956308015546e-03  6.8160355124080292e-04  8.3749743918462502e-03  8.3878415875558252e-03  8.1114092435064233e-03  5.2948203774789149e-03  8.6766425813278366e-03  5.5937700002948749e-03  4.8047886708323757e-03  1.3818273038786865e-03  1.6711722480630734e-03  2.8731163714416676e-03  1.7312185924670809e-03  1.2271527574216296e-03  7.2195717927967555e-03  4.7854677085604116e-03  4.6724584182684936e-03  4.5920373066804104e-03  7.4209166052306812e-03  7.5840214940679791e-03  2.4124340154480376e-03  1.8513956042445444e-03  2.5728177546470682e-03  3.0937325172302682e-03  4.6447575345013974e-03  7.0787204717128798e-03  2.0918916433570571e-03  7.1675053601151870e-03  6.9795078665251193e-03  7.4867849745545497e-03  1.2941026614482149e-03  2.6329365731570854e-03  3.2499222429983085e-04  4.9038608233250109e-03  7.3162577886372289e-03  1.4188279116177441e-03  2.8862766072101070e-03  3.9889518332381882e-04  5.2860867774487809e-04  5.7515563834736958e-04  8.4156312225751005e-03  2.9933360641893488e-03  4.3439206691496518e-04  5.8464956169051064e-04  4.8836769612223968e-04  6.5954787952374845e-03  3.4735750322000976e-03  7.8907687934756734e-03  5.0950247544392100e-03  1.4215934537918323e-03  7.5932770078401676e-03  7.3170679340719934e-03  7.3793197920770529e-03  5.9075859556075722e-03  6.3568265412686179e-03  5.7221816913746110e-03  2.7538540082476070e-03  2.0316502590280445e-03  1.5528642605553726e-03  2.2729320198237955e-03  5.9027636842453879e-03  3.6428676498876625e-03  7.1458549190001122e-03  4.5569343534147136e-03  8.5165311412216480e-03  8.4891456075639124e-03  9.0026587034540018e-03  1.0682589536912675e-03  6.6063459295097621e-03  5.2292337344259799e-03  7.9133698737697128e-03  7.2510231432391893e-03  4.0145733768716411e-03  6.1166846313534234e-03  7.7641941498214273e-03  4.5584175057896682e-06  6.2740892108076172e-05  2.2163496331132774e-03  2.4483534275422060e-03  1.0707870283378426e-03  4.4346024869816904e-03  1.5060576820686376e-03  5.0142997170152881e-03  5.0244017767540434e-03  4.9182072134910781e-03  6.2306126144654247e-03  6.3707960550033593e-03  2.6355955986206874e-03  5.5461501871749809e-03  4.0223981435039483e-03  4.6027124422192986e-03  4.5641788094569246e-03  6.0336442329057419e-03  1.1074812862858167e-03  6.8967254839498371e-03  5.5342644167503570e-03  5.6569045803616120e-03  5.5169999016013542e-03  4.7054398180387570e-03  7.0235346553450895e-03  1.8983469438691889e-03  1.8985695769014204e-03  1.7697562060378282e-03  7.9832227731274508e-03  3.0343769051879434e-03  7.7799833662271561e-03  6.1242207228872072e-03  5.9729154684722684e-03  1.3096071230141800e-03  8.3102387482094232e-04  3.4717918045436770e-03  5.6375838570715733e-03  1.3116615534682237e-03  4.9149247770310213e-03  2.1518786721516224e-03  1.7899367735928645e-03  2.0320229434048448e-03  2.9949500771001940e-03  3.4593825829201826e-04  5.8752037287152607e-03  3.2330516842176333e-03  4.1945668289496618e-03  4.4345017652270844e-03  3.4643139079342449e-04  8.2944453386606966e-04  1.5510707228231703e-03  3.2332913323081598e-03  4.1954000943152181e-03  8.4298653679737070e-03  -8.3081397052400858e-08  2.6327476037750559e-03  2.1520856151266308e-03  6.8382269658415259e-03  7.0767134556477956e-03  7.3250231492158297e-03  6.5967026995295708e-03  8.0584004271430504e-03  6.8347490092948611e-03  1.0806355873281335e-02  8.6263517921990798e-03  9.0643879193485453e-03  1.0522919494706398e-02  8.9084920267888165e-03  7.5681231409764384e-03  7.6379020054951957e-03  8.1318654893783576e-03  5.1954207347502122e-08  6.1174001987477399e-03  2.1518776540568499e-03  8.7879493181560048e-03  5.3954372204234420e-03  5.3972637721618729e-03  6.3563531290051906e-03  5.1547746951719669e-03  9.3713756084425875e-03  5.7341799040112131e-06  5.1580313295962318e-03  2.9737568612114781e-03  2.2721333032436346e-03  2.3923586897059176e-03  2.5125005414352200e-03  2.3924397949729938e-03  2.5120640134305436e-03  2.2722092737712547e-03  2.2770810213291917e-03  3.7169535407419892e-03  3.7136092208442466e-03  2.5133052561400137e-03  6.6364574544336251e-05  4.1879169378184174e-03  6.4808643407441712e-04  3.5336374221443499e-03  4.1841635137925470e-03  3.7417102769625346e-03  7.6439628170578960e-03  5.8667470912875611e-03  2.7929115454991263e-03  1.6690652443501939e-03  1.0104005234877840e-03  2.2908812478568264e-04  3.9440136590639090e-03  1.2597866644410551e-03  2.8118196447088854e-03  8.0178537433391716e-03  7.8093975370417757e-03  5.0733454810184958e-03  4.9231926124696729e-03  6.5615517406448457e-04  8.2640662352877203e-03  7.8722819906905958e-04  8.8177207166064940e-03  8.0423771801761326e-03  5.3484700772038155e-03  2.6861912695111631e-03  1.4404561534221226e-03  2.8952175809824616e-03  2.0017618401350040e-03  4.3997984012293109e-04  6.2589505112882809e-03  3.2610084975857479e-03  7.7192221563204327e-03  8.5070129597854156e-03  6.8178556276923385e-03  1.0419212550994170e-03  9.7489559009963055e-04  4.3493475905041264e-03  7.6728858886775794e-03  7.5431404894355540e-03  7.7324360516308321e-03  3.4673855700046311e-03  4.7903121097395557e-03  2.2643545159531519e-04  5.1574032231474663e-03  5.7643790872734949e-03  2.0442527821484279e-03  2.7820587688649804e-03  6.0896194963877661e-03  9.9677470508371317e-04  6.4798892433387840e-03  3.5585281071063507e-03  3.5337641186040142e-03  6.5018048811800342e-03  1.1835741829493442e-03  7.1121507098340347e-03  3.6803874269324835e-03  4.4973162199479604e-03  7.0368434044906121e-03  4.6156714612315749e-04  8.2777547867208244e-04  3.6243299719000135e-04  6.2573539745882176e-03  6.2911326442099437e-03  7.4610510251771197e-03  9.5514119387129452e-03  1.6188591787823061e-03  1.2030933783001377e-03  4.3883761384282778e-03  7.5495026968385916e-03  4.8872764298785688e-03  8.3252902530721994e-03  4.9101711011430588e-03  3.1168356503285485e-03  5.6492927029248626e-03  5.2937947278941981e-03  6.5939273720132851e-03  2.5002375657849776e-04  4.1211388363318344e-03  7.6249083492915750e-04  3.7934330299990624e-03  6.7710781810403986e-03  9.1747282812874170e-03  4.4943178721870173e-03  1.1293023592494702e-03  5.8123755673822330e-03  6.3528094959503965e-04  3.3298083711241016e-03  7.4084540549193461e-03  7.8921510119844430e-03  2.1818775676640020e-04  1.0007111549774106e-04  3.2932088043019117e-03  5.0571668349009167e-03  3.0144350886014194e-03  3.2173606340092343e-03  4.3750061602675777e-03  1.4871653527079372e-03  6.1479239542720047e-03  6.8481543118320224e-03  8.2970839506703274e-03  8.1520182375577552e-03  8.3269370982074278e-03  6.9431255162180931e-03  1.8511405593822283e-03  7.6518508946682466e-03  7.2568204394018315e-03  7.3950607424900072e-03  7.3202127595587748e-03  1.0247764133419210e-03  8.5563945126372490e-04  4.4804082402876162e-03  3.4098571565511762e-03  3.1152476308393476e-03  5.0870582829592413e-03  4.6745095369374497e-03  3.1733077833921261e-03  4.3135151465130261e-03  4.3069713735674840e-03  8.4467178579922860e-03  6.6613760963768606e-03  4.7214998903906099e-03  1.2890994293166536e-03  5.6357225203132596e-03  5.4461120852419614e-03  4.5464408371751405e-03  5.3605818733133484e-03  6.2965579921984687e-03  8.1407036026855083e-03  7.8501399976985686e-03  4.9759126139560864e-03  8.4864312378650376e-03  5.2328132413809372e-03  5.2155522744319399e-03  8.2346850793737179e-03  8.1665262546263100e-03  8.1494429653737582e-03  3.7896726869446865e-03  3.8145213469670948e-03  6.4445387256949309e-03  5.1335169479488525e-03  4.0282984393431899e-03  8.3951879609404367e-03  8.0933759169446590e-03  4.6909189680414635e-03  7.2577293032947817e-03  7.8765633431963650e-03  7.8823390906566839e-03  5.8790095188841632e-04  3.3176952698191257e-03  5.9590750157377465e-03  3.1945459391311454e-04  4.0784000089510650e-04  2.8541628919956423e-04  3.9390151052598197e-03  3.8455877012836728e-03  3.7828104121644325e-03  3.3040156203219587e-03  1.5971718866096640e-03  1.6111512383567353e-03  7.8250640183308781e-03  3.3545378634147784e-03  6.7352560675871453e-03  6.5810154785632680e-03  3.4787464010976447e-03  7.6957975864594668e-04  9.1605465880188774e-04  9.0828419476819060e-04  8.1560874713408268e-04  6.5366931368190818e-03  6.6827467425510040e-03  6.6565685934115645e-03  4.4923310498977539e-03  1.9969160608649780e-03  2.3322841671620702e-03  2.0675497631045662e-03  7.2223653589800407e-03  1.6111830197505653e-03  1.9415128111212846e-03  2.6932563681044083e-03  1.7011623530180119e-03  1.5810598043585627e-03  3.0238284625345594e-03  7.4944255760451698e-03  7.1380948100265478e-03  2.5722666691572532e-03  7.3880517272076939e-03  1.7612803479600853e-03  1.8213411476889377e-03  1.8813931366667164e-03  2.6031359170622321e-03  2.5126566415969395e-03  2.4176834658440247e-03  2.2468742188348108e-03  2.4890845719175302e-03  2.3637301000801947e-03  5.5290075926597273e-04  7.9477232955760434e-05  3.6194454289490028e-03  2.8134295972198995e-03  6.6974344438123265e-04  4.2159869516162915e-03  5.4210977744262598e-03  5.2609194620297853e-03  7.1610634450428624e-03  5.4428368671311823e-03  6.0658791989178715e-03  6.3238246759820468e-03  4.8029951219511445e-03  7.3465708336617266e-03  6.9827997206058038e-03  5.9539985552352175e-04  1.4911512302895930e-03  5.8519929997133610e-03  5.7605916887314501e-03  5.0958283097114199e-03  2.5639665345912740e-04  1.6221481748904379e-04  6.8296258445439012e-05  3.8147181010537747e-03  7.0728131923142468e-03  4.1274923271180670e-03  4.2570411460927425e-03  4.2260731857491430e-03  8.5991248321254593e-04  4.8449727844181471e-03  4.0345902525498120e-03  4.2811167208927844e-03  3.6282536151380647e-03  6.4182553645476486e-05  5.3518253869122758e-03  5.4562065381471344e-03  5.5154502725315727e-03  8.5889783811680456e-03  7.8859994447923656e-03  2.8130671431133968e-03  2.7206390200933874e-03  6.7788282785960681e-04  6.5959554792790025e-03  4.8781245355031923e-03  6.5171995025642138e-03  4.3891916798634301e-04  8.3049188150878216e-03  6.1769356459717715e-03  5.8182055435620095e-03  3.4463725763542435e-03  8.2739700555378628e-03  3.9808268263153684e-03  3.9283562643501095e-03  3.8672766053365086e-03  7.2321474665390318e-03  7.0162099274056660e-03  8.3503639474588123e-03  6.3384819290066485e-03  6.9391338239341216e-03  5.3361120972015294e-03  3.6214931770630313e-03  7.6941260838915364e-04  3.0894054721072239e-03  3.7140246772322886e-04  6.3518454657229186e-03  8.1857567964151254e-03  8.3739172537380582e-03  7.9668972947069955e-03  2.0016105758708211e-03  8.4148158051495243e-03  8.1117880046996608e-03  7.8665370168815307e-03  7.8138304180286212e-03  8.5774096254516621e-03  7.8939146697040892e-03  8.5269107776578118e-03  5.9954244127423464e-03  1.4777161949471073e-03  6.7711214137660741e-03  1.1995157579412117e-03  8.5642095471924647e-03  6.5202729058725165e-03  6.4419719936049565e-03  4.1365119948250859e-03  5.9415049139949563e-03  5.9275122990464163e-03  5.8163718027149812e-03  9.4887113309979551e-04  5.0792498090542512e-04  6.3446402031647527e-03  9.1690239463801284e-05  1.8368790898840294e-04  2.0768810925904545e-04  4.3741797375146732e-03  4.3733249613751232e-03  8.8141599136967973e-03  4.7168482301605530e-03  7.2707918076409016e-03  4.3063348925374348e-03  6.7575488340595761e-03  6.8988600879749291e-03  1.0681687036731334e-03  1.0100746561344826e-03  8.5134109187432264e-03  5.5388276743542813e-03  7.0578516330029204e-03  3.7359341760632445e-03  3.1479596012909403e-03  3.2710689980898324e-03  2.8057143544733332e-04  2.7021566384761620e-03  4.1074676443714391e-03  4.1342483064536690e-03  3.4446597141610832e-03  4.0747625430400248e-04  5.3671228652905738e-03  7.4013514240970218e-03  6.4282959504625157e-03  5.2161244294138863e-03  4.8556651670311349e-03  4.9680569251640914e-03  7.7520298505314817e-03  7.8061332598747439e-03  7.9559898576620613e-03  3.0442117560666778e-03  2.941