<?xml version="1.0"?>
<VTKFile type="UnstructuredGrid"  version="0.1"  >
<UnstructuredGrid>
<Piece  NumberOfPoints="1079" NumberOfCells="1944">
<Points>
<DataArray  type="Float64"  NumberOfComponents="3"  format="ascii">0.08500000000000001 0.02 0  0.005 0.02 0  0.005 0.03 0  0 0.03 0  0 0 0  0.005 0 0  0.005 0.01 0  0.08500000000000001 0.01 0  0 0.015 0  0 0.0075 0  0 0.0225 0  0.04500000000000001 0.02 0  0.04500000000000001 0.01 0  0.025 0.01 0  0.025 0.02 0  0.065 0.02 0  0.065 0.01 0  0.035 0.02 0  0.035 0.01 0  0.07500000000000001 0.02 0  0.07500000000000001 0.01 0  0.015 0.02 0  0.015 0.01 0  0.05500000000000001 0.01 0  0.05500000000000001 0.02 0  0.07000000000000001 0.01 0  0.07000000000000001 0.02 0  0.05 0.01 0  0.03 0.01 0  0.03 0.02 0  0.04000000000000001 0.01 0  0.01 0.01 0  0.02 0.02 0  0.06 0.015 0  0.08500000000000001 0.015 0  0.05 0.02 0  0.07250000000000001 0.015 0  0.04000000000000001 0.02 0  0.03750000000000001 0.015 0  0.0525 0.015 0  0.02 0.01 0  0.01 0.02 0  0.0275 0.015 0  0.0125 0.015 0  0.08000000000000002 0.01 0  0.08000000000000002 0.02 0  0.0325 0.014375 0  0.04291666666666667 0.015 0  0.065 0.015 0  0.005 0.005 0  0.005 0.015 0  0.02208333333333334 0.015 0  0.07791666666666668 0.015 0  0.005 0.025 0  0.06 0.01 0  0.06 0.02 0  0.01729166666666667 0.01572916666666667 0  0.04770833333333334 0.01427083333333334 0  0.06875000000000001 0.01625 0  0.008750000000000001 0.01625 0  0.05625000000000001 0.01625 0  0 0.00375 0  0 0.01875 0  0 0.01125 0  0 0.02625 0  0.08145833333333334 0.01354166666666667 0  0.0675 0.01 0  0.0075 0.0125 0  0.0625 0.0175 0  0.0575 0.0125 0  0.0625 0.0125 0  0.08207465277777778 0.01707465277777778 0  0.06767857142857144 0.01321428571428571 0  0.0175 0.01 0  0.01875 0.01291382575757576 0  0.0475 0.02 0  0.04564168086314595 0.01679860519591141 0  0.00296875 0.0125 0  0.0025 0.03 0  0.0025 0 0  0.00296875 0.0175 0  0.01521990740740741 0.0132349537037037 0  0.0497800925925926 0.0167650462962963 0  0.0325 0.02 0  0.03474264705882353 0.01674632352941176 0  0.03750000000000001 0.02 0  0.03025735294117647 0.01674632352941176 0  0.0275 0.02 0  0.0525 0.02 0  0.0125 0.01 0  0.04020833333333334 0.01322916666666667 0  0.03750000000000001 0.01 0  0.0225 0.02 0  0.02479166666666667 0.01677083333333333 0  0.07520833333333335 0.01322916666666667 0  0.07250000000000001 0.01 0  0.07520833333333335 0.01677083333333334 0  0.07250000000000001 0.02 0  0.04020833333333334 0.01677083333333333 0  0.0225 0.01 0  0.02375 0.01262152777777778 0  0.04250000000000001 0.02 0  0.04250000000000001 0.01 0  0.07750000000000001 0.01 0  0.07750000000000001 0.02 0  0.05036151960784314 0.01294424019607843 0  0.0705560064935065 0.01284699675324675 0  0.05458333333333334 0.01291666666666666 0  0.0021875 0.024375 0  0.005 0.0275 0  0.01125 0.0175 0  0.01463848039215686 0.01705575980392157 0  0.01 0.01375 0  0.03625 0.0125 0  0.0021875 0.009375 0  0.05375000000000001 0.0175 0  0.07125000000000001 0.0175 0  0.005 0.0025 0  0.0021875 0.005625 0  0.02655220103578155 0.01234889948210923 0  0.002187499999999999 0.020625 0  0.02979166666666667 0.01302083333333333 0  0.0525 0.01 0  0.07895833333333334 0.0125 0  0.01994277885235332 0.01704213007736944 0  0.07934656179076068 0.01733823814273861 0  0.04505722114764669 0.01295786992263056 0  0.06625 0.0175 0  0.006250000000000001 0.0175 0  0.05750000000000001 0.02 0  0.05875000000000001 0.0175 0  0.005 0.0225 0  0.005 0.0075 0  0.002375 0.027375 0  0.002375 0.002625000000000001 0  0.0475 0.01 0  0.0175 0.02 0  0.0325 0.01 0  0.03375 0.0121875 0  0.04261299435028249 0.01749205508474576 0  0.08500000000000001 0.0125 0  0.08250000000000002 0.01 0  0.02121963399965531 0.01224824108143494 0  0.0675 0.02 0  0.0125 0.02 0  0.02720152243589744 0.0175 0  0.03715165441176471 0.0175 0  0.08500000000000001 0.0175 0  0.0275 0.01 0  0.0025 0.0149560546875 0  0.0075 0.01 0  0.0075 0.02 0  0.06526785714285716 0.0125 0  0.01281031447005516 0.0125 0  0.0625 0.015 0  0.06 0.0125 0  0.05750000000000001 0.01 0  0.0625 0.02 0  0.0625 0.01 0  0.08250000000000002 0.02 0  0.04260103740101855 0.01252623201412851 0  0.02240052247582197 0.01750164767101344 0  0.07293583459427785 0.01238479732953041 0  0.005234374999999999 0.012265625 0  0.03528131980640358 0.01454684009679821 0  0.0325 0.01760027210036557 0  0.02532593822924343 0.01428227733767297 0  0.08009952069819683 0.01527145502895417 0  0.01987282359856536 0.01482587683689801 0  0.04828232595121382 0.01210233572595705 0  0.01671767404878618 0.01789766427404295 0  0.05125 0.01829007549029352 0  0.05247215456215357 0.01288882122882024 0  0.07338729919678716 0.01799385040160642 0  0.03838729919678716 0.01200614959839357 0  0.07717482110586968 0.01780301674207099 0  0.04771860040890012 0.01773306039388322 0  0.03125 0.01160380747126437 0  0.06875000000000001 0.01154265873015873 0  0.07625000000000001 0.01154065860215054 0  0.01625 0.01153997817696946 0  0.068125 0.018125 0  0.05437500000000001 0.015625 0  0.066875 0.015625 0  0.07039794950204951 0.01494384850614853 0  0.05687500000000001 0.018125 0  0.006875 0.015625 0  0.008749999999999999 0.01833333333333333 0  0.010625 0.015625 0  0.05625 0.01416666666666667 0  0.05812500000000001 0.015625 0  0.0449088595298192 0.01494528408816316 0  0 0.016875 0  0 0.013125 0  0.04962452342047931 0.01478673066448802 0  0.0153754765795207 0.01521326933551198 0  0.0771774565913315 0.01322498191305479 0  0.01857756431135545 0.01840228599899994 0  0.04642243568864456 0.01159771400100006 0  0.08125000000000002 0.01155637254901961 0  0.08317650804863432 0.0118234919513657 0  0.08288217288011697 0.01511353252923977 0  0.02837253504384828 0.0117177464035174 0  0.03896057962520807 0.01831163685754031 0  0.01125 0.0114244162490927 0  0.00935910490099115 0.0119067901980177 0  0.02946078431372549 0.01495404411764706 0  0.02875 0.0185829434466942 0  0.002968749999999999 0.0225 0  0.064375 0.016875 0  0.00296875 0.0075 0  0 0.001875 0  0 0.005625 0  0 0.009375 0  0 0.020625 0  0 0.024375 0  0 0.028125 0  0.06062500000000001 0.01812500000000001 0  0.008303571428571429 0.01446428571428572 0  0.01375 0.01865917058160413 0  0.05137790313978056 0.01143372888932909 0  0.04125000000000001 0.01131513063942604 0  0.04101690263896279 0.01844430285842771 0  0.02399563533148224 0.01844349395710867 0  0.08125000000000002 0.01868815426145731 0  0.05354684380692146 0.01145463537600848 0  0.01699195823639423 0.01315138909884649 0  0.07598357371794873 0.015 0  0.04098357371794872 0.015 0  0.003744047619047619 0.00375 0  0.003344630281690141 0.02580853873239437 0  0.04625 0.0187354532243972 0  0.06388392857142858 0.01138392857142858 0  0.06375 0.01375 0  0.05875 0.01375 0  0.06375 0.02 0  0.00622802734375 0.01372802734375 0  0.003630681818181818 0.001369318181818182 0  0.003630681818181818 0.02863068181818182 0  0.06125 0.01625 0  0.06125 0.01125 0  0.05625000000000001 0.01 0  0.05875 0.01125 0  0.06125 0.01375 0  0.08337864763241221 0.0183786476324122 0  0.05213634138653413 0.01674432930673294 0  0.04375000000000001 0.01 0  0.07424178685897437 0.01529258578431373 0  0.03924178685897436 0.01529258578431372 0  0.03410139294454583 0.01843406022904556 0  0.03089860705545417 0.01843406022904556 0  0.02094160484316717 0.01850229584291991 0  0.04375000000000001 0.02 0  0.04437042160883325 0.01820701498672512 0  0.04816311705429156 0.01600061344661149 0  0.07151224904251052 0.0114127410511319 0  0.04395528506193162 0.01639387970349481 0  0.0128750358694518 0.0167500179347259 0  0.02855808448399799 0.01642839899839741 0  0.02812690373330794 0.01340955081400569 0  0.08358500641945087 0.01351822349116885 0  0.05590277777777778 0.01173611111111111 0  0.06683110430364615 0.01164926404662283 0  0.02573206694914602 0.01842532451809762 0  0.01438126661842046 0.01166701193099454 0  0.02384283211216029 0.01526549696571563 0  0.03625 0.02 0  0.004609375000000001 0.0182421875 0  0.003398437500000001 0.01943359375 0  0.001728307845744682 0.01894718251329787 0  0.004377805359085963 0.01656966216675735 0  0.04649673309852075 0.0153889662370871 0  0.03615513600614297 0.01592654988586041 0  0.03316985071935832 0.01598763605018279 0  0.03110111603888768 0.01529816275177977 0  0.01370614113484869 0.0138804542047638 0  0.04930041102671841 0.01842260568883502 0  0.07875000000000001 0.02 0  0.0745395359848485 0.01165101111925709 0  0.03860755698543604 0.01373741558556884 0  0.02605038706571737 0.01573944002207753 0  0.07559826163500957 0.01841729376139847 0  0.04437500000000001 0.01149157931286774 0  0.06874116707361365 0.01454618473032123 0  0.003761917372881356 0.0239307468220339 0  0.003984374999999999 0.01125 0  0.003768503289473684 0.01392539576480263 0  0.001796875 0.0111328125 0  0.003761917372881356 0.008930746822033899 0  0.005 0.00625 0  0.003761917372881355 0.0210692531779661 0  0.06633928571428571 0.01410714285714285 0  0.006484375 0.01125 0  0.08364120589325512 0.01657288979763549 0  0.03576267476503373 0.0184116442851204 0  0.07370875846579374 0.0137848203678562 0  0.06964285714285715 0.01758928571428571 0  0.05520833333333334 0.01833333333333333 0  0.06491071428571429 0.01839285714285714 0  0.0510098951944636 0.01559941474766356 0  0.01786087179886325 0.0115702210443714 0  0.01972197383235524 0.01160576093166696 0  0.01804697593127788 0.01433503795474974 0  0.001644074528704677 0.01642892723865279 0  0.00125 0.03 0  0.001497685185185185 0.001267746913580247 0  0.07315451164202422 0.01643443118912983 0  0.001233906745910645 0.0140625 0  0.01162635071030191 0.01362229857939618 0  0.01528023503083844 0.01845923557506155 0  0.06625 0.02 0  0.07695012019230771 0.01624387078484555 0  0.03139091092855769 0.01320776147621796 0  0.03857339107781042 0.01675295051810485 0  0.001754993120977522 0.02590789105493891 0  0.002288757784711197 0.00412546923654445 0  0.07914382119690884 0.01404430049871201 0  0.001391810103286306 0.01257390899021902 0  0.0419501201923077 0.01614675005432421 0  0.001484375 0.007018229166666667 0  0.001484375 0.02201822916666666 0  0.048
[...]
<PointData  Scalars="pressure"> 
<DataArray  type="Float64"  Name="pressure"  format="ascii">-6.0126173083288601e-05  1.5324737388033458e-02  9.7784273533493300e-03  4.8798082822584174e-03  5.6764476185477229e-03  2.3205547071072398e-03  1.5248563867746043e-02  -5.7854112533913976e-05  1.5246553445399463e-02  1.5982225588637301e-02  1.6164073916992195e-02  7.4831200724394904e-03  7.4838321277901970e-03  1.1233894648646225e-02  1.1233803481692971e-02  3.7289148852657915e-03  3.7309470067647460e-03  9.3581419231611243e-03  9.3570439062999854e-03  1.8500391462847382e-03  1.8559513321232944e-03  1.3110758004971919e-02  1.3105854611668397e-02  5.6001451229024364e-03  5.6044869592145712e-03  2.7929999203666544e-03  2.7929203977804353e-03  6.5455833318441986e-03  1.0295045927840248e-02  1.0295558986193904e-02  8.4214999527242457e-03  1.4045674092986994e-02  1.2170429958442416e-02  4.6682501724833658e-03  -1.0089935088588260e-19  6.5432722182204054e-03  2.3227102483211332e-03  8.4245348318147274e-03  8.8887677197950713e-03  6.0748987604512979e-03  1.2170018238440002e-02  1.4060939714807159e-02  1.0763817559643979e-02  1.3575396399373271e-02  9.1485836114963781e-04  9.0755529501500179e-04  9.8263527171695113e-03  7.8726385172358561e-03  3.7298588005874470e-03  1.6523009984332229e-02  1.4897721750363666e-02  1.1779334062034835e-02  1.3066362029931222e-03  1.6780752694465960e-02  4.6670939032516416e-03  4.6634526925759387e-03  1.2677502465289498e-02  6.9735544063298542e-03  3.0264516806485344e-03  1.4276688708345803e-02  5.3719519809136175e-03  1.6480497960642430e-02  1.5508917290135904e-02  1.5434223341643813e-02  1.6731006940649107e-02  6.4446648000053444e-04  3.2603214092299998e-03  1.4508059326326183e-02  4.1987903688088133e-03  5.1372332854929675e-03  4.1988331075566709e-03  5.2853692737825841e-04  3.2273376804420112e-03  1.2638340798939950e-02  1.2404064479881592e-02  7.0056599700281897e-03  7.3613392590140365e-03  1.5208815104229979e-02  2.2592541207278192e-02  2.2264354055634213e-02  1.5248061574832467e-02  1.3065349600470523e-02  6.5846807514350295e-03  9.8229134833393347e-03  9.4059331633451725e-03  8.8862758195219910e-03  1.0246904935893668e-02  1.0762416196689576e-02  6.0752339705803455e-03  1.3576887399838544e-02  8.3808111104195313e-03  8.8907641788921153e-03  1.1699954305106296e-02  1.1271569764736273e-02  1.8145949542890934e-03  2.3228610088118409e-03  1.8143737626980321e-03  2.3166249877051995e-03  8.3810361876039997e-03  1.1701634333510938e-02  1.1467148586509799e-02  7.9502939697238071e-03  7.9544337956805686e-03  1.3939675040850266e-03  1.3863573841473157e-03  6.4760296368842601e-03  2.6877902841496849e-03  5.6842647712000696e-03  1.6549799548935713e-02  1.7546462275203418e-02  1.3812614384051809e-02  1.3175727422489637e-02  1.4040870265556442e-02  9.1227240945233740e-03  1.5655466985016603e-02  5.8407458456470078e-03  2.5571943260636106e-03  1.7147374572173857e-02  1.6329044001699190e-02  1.0941718194874545e-02  1.5775200877332966e-02  1.0334038422265579e-02  6.0712019109868632e-03  1.1100088093928180e-03  1.2180491584375553e-02  1.0377205927677106e-03  7.4709054254190254e-03  3.4955051308937293e-03  1.4759555685986638e-02  5.1426779156703564e-03  4.9033059892928908e-03  1.6156531331123006e-02  1.5980471542956690e-02  1.7383694875171222e-02  1.7003947881381060e-02  7.0127624145761925e-03  1.2630760614608945e-02  9.8262680341613812e-03  9.5923857763318948e-03  7.9296899158126516e-03  -1.8008672324113397e-06  4.4643032784912322e-04  1.1941377217042826e-02  3.2574159736273884e-03  1.3580251116087776e-02  1.0819802136699872e-02  8.9543299030747960e-03  -1.6518110316217026e-06  1.0757988205730524e-02  1.5167229541748130e-02  1.4526830398857988e-02  1.4545772592902757e-02  3.6794967051333822e-03  1.3516519047488660e-02  4.1989977403304310e-03  4.6683007816310015e-03  5.1370741173981556e-03  4.1962814357255794e-03  4.1906107970152507e-03  4.4833938808409027e-04  7.9319739489883707e-03  1.1719792722139149e-02  2.2410287039493610e-03  1.4926952924221444e-02  9.3047999447329385e-03  9.8262570683450949e-03  1.1171502911296359e-02  8.9834132865688956e-04  1.2193649223299638e-02  6.8658886333247578e-03  1.2785332382890422e-02  6.3090651876710402e-03  6.0800519769309627e-03  2.1556947513807477e-03  8.7221680475672251e-03  1.4455455263352674e-03  6.9706966651104114e-03  1.0060339215241099e-02  3.0265181904476656e-03  1.6191070547137147e-03  1.2872213671628276e-02  3.1437847929619914e-03  5.7233991816406787e-03  3.3781515551605805e-03  2.7172237404192957e-03  5.2556562662428516e-03  1.4607872189664584e-02  1.4290893290864259e-02  1.3926439062129333e-02  5.3717511624074227e-03  5.0201724511119731e-03  7.4988056123067104e-03  1.5318753359181652e-02  1.5286420147457127e-02  6.6140989345900127e-03  1.3036756899947407e-02  1.4450931639114876e-03  1.2435885622743875e-02  7.2146581217769970e-03  6.7866671392139582e-04  3.1721778553000157e-04  3.8372592335656207e-04  1.0599809651418117e-02  8.6152865913306682e-03  1.3808994047593302e-02  1.4162787924118642e-02  1.0396165463024288e-02  1.0529165983097097e-02  1.6156344678857616e-02  3.8470519905659931e-03  1.5985434707906226e-02  1.6427197923085429e-02  1.6291362331079241e-02  1.5686317394427864e-02  1.5806292336691816e-02  1.6501807886041615e-02  1.6560168217457875e-02  4.5509289643109107e-03  1.4351679030424631e-02  1.3343748569382015e-02  6.2851380006845523e-03  8.1856242344373383e-03  8.2296374011250895e-03  1.1420443842794510e-02  6.7776385700326301e-04  5.8788954000514619e-03  1.2733431187507574e-02  1.6691084507050107e-03  8.2353965899026899e-03  1.6813340821441519e-02  1.6968705274123575e-02  7.2468239830753402e-03  3.9390185254907263e-03  3.9643455738525629e-03  4.9027592562876235e-03  3.9609396257937286e-03  1.4715904127229977e-02  1.8191255906953367e-02  1.8519231666100169e-02  4.4336458790680613e-03  4.4333578617213815e-03  5.3737573074240600e-03  4.9026511986711213e-03  4.4336431087405878e-03  2.7523555659165501e-04  6.1430711811624591e-03  7.7121583107099476e-03  1.9958379707051472e-03  8.5621536642321548e-03  9.5259097773872561e-03  1.0127287291462023e-02  1.1993419369573839e-02  7.7139332701031743e-03  7.6000847929605471e-03  6.8880485253447529e-03  2.5083677082482071e-03  7.6777456925772114e-03  1.3506617221215605e-02  1.0565429399697856e-02  1.0646227307096752e-02  2.5359050561924693e-04  5.4366074494265971e-03  3.3858923238277638e-03  1.1095610932706374e-02  1.3221898424832391e-02  1.1449495026978101e-02  9.1278958999363169e-03  1.5109783501160230e-02  1.5465694229867726e-02  1.5509048676536255e-02  1.5026524935638245e-02  7.2008478120322685e-03  9.1410573990923574e-03  9.7007496468697555e-03  1.0088633146722642e-02  1.3349070911888755e-02  6.6742532723609530e-03  1.1489409616969942e-03  1.9399379398240390e-03  8.6809868741964599e-03  1.1035627394948759e-02  1.7409026251142214e-03  7.5990336947292965e-03  3.0280775918771082e-03  1.6493541643342317e-02  1.5214688443489029e-02  1.5058884274545121e-02  1.5417250636628351e-02  1.5680125070946786e-02  1.6240972559500699e-02  1.5808746831726169e-02  3.4785797862529324e-03  1.4730064340737908e-02  2.4304744482335743e-04  9.2153547720832830e-03  2.0959223891386190e-03  2.8590565131205946e-03  5.5671611720113706e-03  3.7463565440383588e-03  6.3542555082763200e-03  1.2570737215548550e-02  1.2221849842611756e-02  1.2535836692764162e-02  1.5265739878201828e-02  1.7288798758721247e-02  1.6603352017685511e-02  2.1997347901019171e-03  1.5236864553837456e-02  1.3738077392272830e-02  1.3055295563544079e-02  3.4989227208289662e-03  1.4877452473667525e-03  1.0034215075236537e-02  8.6876427786272935e-03  1.6834268300874436e-02  1.6604886433533812e-02  1.0766485801913647e-03  1.5299175319324010e-02  8.0540436956936592e-03  1.6070609173323112e-02  1.6062674843915499e-02  6.7394704896408314e-03  6.5956050936554940e-03  1.2911776912315810e-02  6.2728873189277345e-03  7.1793378546077934e-03  1.2471809796938101e-02  7.6913616456689435e-03  1.2001087038369591e-02  8.0540171568814437e-03  5.8847262388746638e-03  8.4480195544561695e-03  1.3313550933860000e-02  1.1970225500195079e-02  1.1723994456527170e-02  1.1220265502815949e-02  1.1467898443438283e-02  1.1001121283425537e-02  1.1679909533552526e-02  2.9595306117557608e-03  2.5150259183833084e-03  1.3300060725310267e-03  1.6339847879653657e-02  1.6369930737854331e-02  1.5830032998240932e-02  1.0331843177414438e-02  1.6937842128628297e-02  1.0915188994788865e-02  9.3756381363429477e-03  2.6963640866749460e-03  3.2609678182368156e-03  5.6063387080652061e-03  3.3781362272752181e-03  2.3945449314890046e-03  1.4087541345640558e-02  9.3379353209328223e-03  9.1174197238105149e-03  8.9604937298801372e-03  1.4480339672173969e-02  1.4798235761910108e-02  4.7074022128355602e-03  3.6126402585237630e-03  5.0203608718580664e-03  6.0368303426733905e-03  9.0633672531418713e-03  1.3812711500084691e-02  4.0819232854705017e-03  1.3985927803009553e-02  1.3619142486494640e-02  1.4608718831834030e-02  2.5251864437982672e-03  5.1376722051627056e-03  6.3415089584732719e-04  9.5689592221271155e-03  1.4276419439472443e-02  2.7685651578908221e-03  5.6320183518417015e-03  7.7835604861116925e-04  1.0314656316707238e-03  1.1222955433391755e-03  1.6426149425861007e-02  5.8409250523602293e-03  8.4762163595491515e-04  1.1408210083381706e-03  9.5294376341216328e-04  1.2869819026805812e-02  6.7780224562905677e-03  1.5396659948142327e-02  9.9419800693463511e-03  2.7739610484286666e-03  1.4816688430088430e-02  1.4278075945184614e-02  1.4399583283605008e-02  1.1527541707548382e-02  1.2404159234211867e-02  1.1165760863064712e-02  5.3736222619762790e-03  3.9643736004355253e-03  3.0301128932135272e-03  4.4351932339939878e-03  1.1518133166147736e-02  7.1083648510904263e-03  1.3943874645081152e-02  8.8919967035365876e-03  1.6621452132749077e-02  1.6571286454674806e-02  1.7556819930869060e-02  2.0844948647237927e-03  1.2891047511063122e-02  1.0203864111144068e-02  1.5442719245782119e-02  1.4149007736909408e-02  7.8336793933048467e-03  1.1935563053869636e-02  1.5150163093202586e-02  8.8952134751058790e-06  1.2238747478180017e-04  4.3247793888280782e-03  4.7774915488637401e-03  2.0894277299865261e-03  8.6532886597579014e-03  2.9387770796908616e-03  9.7844603601983261e-03  9.8041729587417994e-03  9.5969522411208461e-03  1.2157871936597139e-02  1.2431409605277752e-02  5.1428608322958234e-03  1.0822267080601210e-02  7.8489474871275330e-03  8.9813229259617568e-03  8.9061328296611598e-03  1.1773520828931395e-02  2.1610290136950803e-03  1.3457707591680712e-02  1.0799074598610651e-02  1.1038383892555044e-02  1.0765385260362179e-02  9.1817775185327848e-03  1.3705085155084673e-02  3.7042562329331463e-03  3.7046914120680437e-03  3.4533361119169254e-03  1.5579285162737305e-02  5.9210086728482660e-03  1.5181578603775968e-02  1.1950262837533695e-02  1.1655018283267113e-02  2.5554405471737117e-03  1.6215755683927566e-03  6.7745441551135170e-03  1.1000681749411639e-02  2.5594499755007384e-03  9.5905496753095412e-03  4.1989769592474862e-03  3.4927136865843455e-03  3.9651026820707713e-03  5.8440764813669733e-03  6.7502129688319461e-04  1.1464353406635821e-02  6.3086849859481245e-03  8.1849043988820834e-03  8.6530941694628778e-03  6.7598154848228442e-04  1.6184936933146862e-03  3.0266125630542462e-03  6.3091534950605278e-03  8.1865296317460527e-03  1.6445855057492235e-02  -1.6200166424432871e-07  5.1373029706154056e-03  4.1993799432981311e-03  1.3343478310332911e-02  1.3808963181351006e-02  1.4293205880855869e-02  1.2872242005354948e-02  1.5726193064307753e-02  1.3336764865819563e-02  2.0986872927594172e-02  1.6834280940312290e-02  1.7681674393474466e-02  2.0472838116019763e-02  1.7371814991039899e-02  1.4768158840348945e-02  1.4903376008483777e-02  1.5865752776009406e-02  1.0130237164071930e-07  1.1936952242449931e-02  4.1989749541957271e-03  1.7141002590623795e-02  1.0528179235713565e-02  1.0531744358634021e-02  1.2403221710512858e-02  1.0058570726545502e-02  1.8264085225552538e-02  1.1189492957037282e-05  1.0064924553918692e-02  5.8027192907227822e-03  4.4336315221277563e-03  4.6682290926123339e-03  4.9026637657748244e-03  4.6683880520162948e-03  4.9018118016691701e-03  4.4337797315191071e-03  4.4432854255578216e-03  7.2529291170390807e-03  7.2464040078780417e-03  4.9042306580353882e-03  1.2946007324617561e-04  8.1719277086715388e-03  1.2646058638617218e-03  6.8952229462274873e-03  8.1646033359626113e-03  7.3012380954644001e-03  1.4916061076803029e-02  1.1447853633595254e-02  5.4498337424800074e-03  3.2568564072332981e-03  1.9715939552991278e-03  4.4701195205513208e-04  7.6959955765931566e-03  2.4582250574657662e-03  5.4867294194190534e-03  1.5644053356855953e-02  1.5238584876814044e-02  9.8996757741417335e-03  9.6066816930839398e-03  1.2803496771968848e-03  1.6128193343068253e-02  1.5361150280764496e-03  1.7206076410576573e-02  1.5691790440189844e-02  1.0436531581375030e-02  5.2415889067172960e-03  2.8107682056971325e-03  5.6494639937030647e-03  3.9060520421625787e-03  8.5852599404735394e-04  1.2213161026402016e-02  6.3632381577703699e-03  1.5062650595649556e-02  1.6597674962910071e-02  1.3303788269612564e-02  2.0331013305223016e-03  1.9023132477256606e-03  8.4869295769105773e-03  1.4972786162021773e-02  1.4719350111535827e-02  1.5088995364159762e-02  6.7659446002783516e-03  9.3473900057744926e-03  4.4183775544683789e-04  1.0063699958354891e-02  1.1248100637331388e-02  3.9889649759717784e-03  5.4286568820207867e-03  1.1882749344593352e-02  1.9450065645176171e-03  1.2644274877358004e-02  6.9437921791884244e-03  6.8954697921688188e-03  1.2687043306004680e-02  2.3095106607760704e-03  1.3878044212673168e-02  7.1815776263551099e-03  8.7756632336836813e-03  1.3731134143530832e-02  9.0064923160869284e-04  1.6152357473903397e-03  7.0720910281279223e-04  1.2210048261885048e-02  1.2275964761833531e-02  1.4558909677744368e-02  1.8620538280094322e-02  3.1588885744842335e-03  2.3475989017798598e-03  8.5630866588755072e-03  1.4731486844124517e-02  9.5365975837304173e-03  1.6248662550655501e-02  9.5812725595639976e-03  6.0819116972357220e-03  1.1023530815538916e-02  1.0329843026467216e-02  1.2866794332734808e-02  4.8786059472762897e-04  8.0416227760762207e-03  1.4878449337813128e-03  7.4021653374383668e-03  1.3212490164468023e-02  1.7896653274896770e-02  8.7698120214326578e-03  2.2036108662643722e-03  1.1341757522063792e-02  1.2396183478973945e-03  6.4974883772250533e-03  1.4456340499276403e-02  1.5401256789501496e-02  4.2574413172510802e-04  1.9526601908233793e-04  6.4260714142113365e-03  9.8681074391372779e-03  5.8820959325783058e-03  6.2780672618965912e-03  8.5369980961541234e-03  2.9019124956762244e-03  1.1996517591147827e-02  1.3362857616632664e-02  1.6192911364933883e-02  1.5909410288341651e-02  1.6246022859040053e-02  1.3548224025412812e-02  3.6121439448353727e-03  1.4930795321538966e-02  1.4160165303240388e-02  1.4429814883782947e-02  1.4283885094703505e-02  1.9996463885256239e-03  1.6696070501746410e-03  8.7426701199906573e-03  6.6536885591484702e-03  6.0788127773281518e-03  9.9264354035728947e-03  9.1214227668996225e-03  6.1921066632958524e-03  8.4170094104553343e-03  8.4042403469392294e-03  1.6493154394394510e-02  1.2998408887245520e-02  9.2498219992093993e-03  2.5154235891870335e-03  1.0997051443159468e-02  1.0627061644847210e-02  8.8715205082980329e-03  1.0460165630856990e-02  1.2286543953950329e-02  1.5883304744204924e-02  1.5319042433074323e-02  9.7095554536229152e-03  1.6562587812479400e-02  1.0210848929406503e-02  1.0177167684427847e-02  1.6066046407662519e-02  1.5933443898175075e-02  1.5904204487795278e-02  7.3948276937415699e-03  7.4433159462171730e-03  1.2575298591048377e-02  1.0017090564462757e-02  7.8604616442675690e-03  1.6378728203720556e-02  1.5794674920102187e-02  9.1534426192486397e-03  1.4162252574528357e-02  1.5368919072647397e-02  1.5380033308331114e-02  1.1471650896557875e-03  6.4738516864041905e-03  1.1628013423575076e-02  6.2334275477849007e-04  7.9580742525745657e-04  5.5691845457592844e-04  7.6862418025109933e-03  7.5039355864920838e-03  7.3814373327875955e-03  6.4471583892913705e-03  3.1165700350600169e-03  3.1438483520237789e-03  1.5268974163091035e-02  6.5457432084871751e-03  1.3142577739039873e-02  1.2841614189001972e-02  6.7881130052222594e-03  1.5016788462650916e-03  1.7874957481018180e-03  1.7723336740211499e-03  1.5914946038230247e-03  1.2755141351804581e-02  1.3040142615411336e-02  1.2989063015497631e-02  8.7659353812858144e-03  3.8965965807539228e-03  4.5510047146686619e-03  4.0344248023574210e-03  1.4093042274718883e-02  3.1439117352241629e-03  3.7884871763861974e-03  5.2553760089627385e-03  3.3194881681461123e-03  3.0851300864869358e-03  5.9004252905978175e-03  1.4623792740400661e-02  1.3928597285959642e-02  5.0192861523904713e-03  1.4416364517434600e-02  3.4367970892256110e-03  3.5539945319096565e-03  3.6711750068801107e-03  5.0795216716636987e-03  4.9029681547924624e-03  4.7176456944025063e-03  4.3843433530800346e-03  4.8569716814925038e-03  4.6123666116423588e-03  1.0788695455304037e-03  1.5508149668163628e-04  7.0626610548570300e-03  5.4898720332216188e-03  1.3068657655675876e-03  8.2595428627163306e-03  1.0578251051313062e-02  1.0265692835985616e-02  1.3973582666991119e-02  1.0620670929980971e-02  1.1836419748520396e-02  1.2339750447345815e-02  9.3721388527229516e-03  1.4335627842799487e-02  1.3625677219487963e-02  1.1617972212432403e-03  2.9096906855590743e-03  1.1419062367427331e-02  1.1240709900553163e-02  9.9435487372632608e-03  5.0029595319789062e-04  3.1650265574267059e-04  1.3326479854369576e-04  7.4436995125947147e-03  1.3801188874057112e-02  8.0540201223972523e-03  8.3068106712194025e-03  8.2463823725824857e-03  1.6779451331248637e-03  9.4540501262853228e-03  7.8727389488171037e-03  8.3537897545468160e-03  7.0798487558266336e-03  1.2523274072102081e-04  1.0443079306827243e-02  1.0646761412888547e-02  1.0762362817617084e-02  1.6755186306073474e-02  1.5389054055267706e-02  5.4891650501119552e-03  5.3088072128882205e-03  1.3227479470768525e-03  1.2870779665879380e-02  9.5187396641854705e-03  1.2717092324120109e-02  8.5645407306977634e-04  1.6216255004000167e-02  1.2053132468995089e-02  1.1353133350338655e-02  6.7249415172691372e-03  1.6148228712082806e-02  7.7678295219133307e-03  7.6654438286261287e-03  7.5462575852477502e-03  1.4112276085647862e-02  1.3690885365695293e-02  1.6291194801959310e-02  1.2368356697205651e-02  1.3540375083032805e-02  1.0412417657560728e-02  7.0666552229322385e-03  1.5013515143005561e-03  6.0283867452274945e-03  7.2471053896793142e-04  1.2394438564060313e-02  1.5971091027532185e-02  1.6337840096944774e-02  1.5547343141609308e-02  3.9057567598654490e-03  1.6424534056281768e-02  1.5830778699366860e-02  1.5350937838885846e-02  1.5247558113939309e-02  1.6740927957426297e-02  1.5402794123413976e-02  1.6637177595759056e-02  1.1698943456817996e-02  2.8834744913911726e-03  1.3212546011129438e-02  2.3406174277307784e-03  1.6707608617255246e-02  1.2723097820180157e-02  1.2570304496142586e-02  8.0716201005252529e-03  1.1593731237167134e-02  1.1566423696476799e-02  1.1349555090885506e-02  1.8515313893588102e-03  9.9110750289624350e-04  1.2380378330271058e-02  1.7891082099743898e-04  3.5842255642559419e-04  4.0523664585619145e-04  8.5353850233688966e-03  8.5337169641838909e-03  1.7193201356154753e-02  9.2040387736029173e-03  1.4187631715352929e-02  8.4029982519247762e-03  1.3186059583042161e-02  1.3461784161168439e-02  2.0843182835648842e-03  1.9709603620691077e-03  1.6614659537183260e-02  1.0807979203164552e-02  1.3772067312045130e-02  7.2899671103401099e-03  6.1426441808967586e-03  6.3828689760127427e-03  5.4747317974772672e-04  5.2727423138537047e-03  8.0149451353985924e-03  8.0672046611950359e-03  6.7215994966055483e-03  7.9509885200850319e-04  1.0472929333077852e-02  1.4442236913019796e-02  1.2543615806767619e-02  1.0178284416054039e-02  9.4749149940101442e-03  9.6942259322992368e-03  1.5125810299352806e-02  1.5231525539424100e-02  1.5526034492245386e-02  5.9402001262568995e-03  5.739