<?xml version="1.0"?>
<VTKFile type="UnstructuredGrid"  version="0.1"  >
<UnstructuredGrid>
<Piece  NumberOfPoints="1079" NumberOfCells="1944">
<Points>
<DataArray  type="Float64"  NumberOfComponents="3"  format="ascii">0.08500000000000001 0.02 0  0.005 0.02 0  0.005 0.03 0  0 0.03 0  0 0 0  0.005 0 0  0.005 0.01 0  0.08500000000000001 0.01 0  0 0.015 0  0 0.0075 0  0 0.0225 0  0.04500000000000001 0.02 0  0.04500000000000001 0.01 0  0.025 0.01 0  0.025 0.02 0  0.065 0.02 0  0.065 0.01 0  0.035 0.02 0  0.035 0.01 0  0.07500000000000001 0.02 0  0.07500000000000001 0.01 0  0.015 0.02 0  0.015 0.01 0  0.05500000000000001 0.01 0  0.05500000000000001 0.02 0  0.07000000000000001 0.01 0  0.07000000000000001 0.02 0  0.05 0.01 0  0.03 0.01 0  0.03 0.02 0  0.04000000000000001 0.01 0  0.01 0.01 0  0.02 0.02 0  0.06 0.015 0  0.08500000000000001 0.015 0  0.05 0.02 0  0.07250000000000001 0.015 0  0.04000000000000001 0.02 0  0.03750000000000001 0.015 0  0.0525 0.015 0  0.02 0.01 0  0.01 0.02 0  0.0275 0.015 0  0.0125 0.015 0  0.08000000000000002 0.01 0  0.08000000000000002 0.02 0  0.0325 0.014375 0  0.04291666666666667 0.015 0  0.065 0.015 0  0.005 0.005 0  0.005 0.015 0  0.02208333333333334 0.015 0  0.07791666666666668 0.015 0  0.005 0.025 0  0.06 0.01 0  0.06 0.02 0  0.01729166666666667 0.01572916666666667 0  0.04770833333333334 0.01427083333333334 0  0.06875000000000001 0.01625 0  0.008750000000000001 0.01625 0  0.05625000000000001 0.01625 0  0 0.00375 0  0 0.01875 0  0 0.01125 0  0 0.02625 0  0.08145833333333334 0.01354166666666667 0  0.0675 0.01 0  0.0075 0.0125 0  0.0625 0.0175 0  0.0575 0.0125 0  0.0625 0.0125 0  0.08207465277777778 0.01707465277777778 0  0.06767857142857144 0.01321428571428571 0  0.0175 0.01 0  0.01875 0.01291382575757576 0  0.0475 0.02 0  0.04564168086314595 0.01679860519591141 0  0.00296875 0.0125 0  0.0025 0.03 0  0.0025 0 0  0.00296875 0.0175 0  0.01521990740740741 0.0132349537037037 0  0.0497800925925926 0.0167650462962963 0  0.0325 0.02 0  0.03474264705882353 0.01674632352941176 0  0.03750000000000001 0.02 0  0.03025735294117647 0.01674632352941176 0  0.0275 0.02 0  0.0525 0.02 0  0.0125 0.01 0  0.04020833333333334 0.01322916666666667 0  0.03750000000000001 0.01 0  0.0225 0.02 0  0.02479166666666667 0.01677083333333333 0  0.07520833333333335 0.01322916666666667 0  0.07250000000000001 0.01 0  0.07520833333333335 0.01677083333333334 0  0.07250000000000001 0.02 0  0.04020833333333334 0.01677083333333333 0  0.0225 0.01 0  0.02375 0.01262152777777778 0  0.04250000000000001 0.02 0  0.04250000000000001 0.01 0  0.07750000000000001 0.01 0  0.07750000000000001 0.02 0  0.05036151960784314 0.01294424019607843 0  0.0705560064935065 0.01284699675324675 0  0.05458333333333334 0.01291666666666666 0  0.0021875 0.024375 0  0.005 0.0275 0  0.01125 0.0175 0  0.01463848039215686 0.01705575980392157 0  0.01 0.01375 0  0.03625 0.0125 0  0.0021875 0.009375 0  0.05375000000000001 0.0175 0  0.07125000000000001 0.0175 0  0.005 0.0025 0  0.0021875 0.005625 0  0.02655220103578155 0.01234889948210923 0  0.002187499999999999 0.020625 0  0.02979166666666667 0.01302083333333333 0  0.0525 0.01 0  0.07895833333333334 0.0125 0  0.01994277885235332 0.01704213007736944 0  0.07934656179076068 0.01733823814273861 0  0.04505722114764669 0.01295786992263056 0  0.06625 0.0175 0  0.006250000000000001 0.0175 0  0.05750000000000001 0.02 0  0.05875000000000001 0.0175 0  0.005 0.0225 0  0.005 0.0075 0  0.002375 0.027375 0  0.002375 0.002625000000000001 0  0.0475 0.01 0  0.0175 0.02 0  0.0325 0.01 0  0.03375 0.0121875 0  0.04261299435028249 0.01749205508474576 0  0.08500000000000001 0.0125 0  0.08250000000000002 0.01 0  0.02121963399965531 0.01224824108143494 0  0.0675 0.02 0  0.0125 0.02 0  0.02720152243589744 0.0175 0  0.03715165441176471 0.0175 0  0.08500000000000001 0.0175 0  0.0275 0.01 0  0.0025 0.0149560546875 0  0.0075 0.01 0  0.0075 0.02 0  0.06526785714285716 0.0125 0  0.01281031447005516 0.0125 0  0.0625 0.015 0  0.06 0.0125 0  0.05750000000000001 0.01 0  0.0625 0.02 0  0.0625 0.01 0  0.08250000000000002 0.02 0  0.04260103740101855 0.01252623201412851 0  0.02240052247582197 0.01750164767101344 0  0.07293583459427785 0.01238479732953041 0  0.005234374999999999 0.012265625 0  0.03528131980640358 0.01454684009679821 0  0.0325 0.01760027210036557 0  0.02532593822924343 0.01428227733767297 0  0.08009952069819683 0.01527145502895417 0  0.01987282359856536 0.01482587683689801 0  0.04828232595121382 0.01210233572595705 0  0.01671767404878618 0.01789766427404295 0  0.05125 0.01829007549029352 0  0.05247215456215357 0.01288882122882024 0  0.07338729919678716 0.01799385040160642 0  0.03838729919678716 0.01200614959839357 0  0.07717482110586968 0.01780301674207099 0  0.04771860040890012 0.01773306039388322 0  0.03125 0.01160380747126437 0  0.06875000000000001 0.01154265873015873 0  0.07625000000000001 0.01154065860215054 0  0.01625 0.01153997817696946 0  0.068125 0.018125 0  0.05437500000000001 0.015625 0  0.066875 0.015625 0  0.07039794950204951 0.01494384850614853 0  0.05687500000000001 0.018125 0  0.006875 0.015625 0  0.008749999999999999 0.01833333333333333 0  0.010625 0.015625 0  0.05625 0.01416666666666667 0  0.05812500000000001 0.015625 0  0.0449088595298192 0.01494528408816316 0  0 0.016875 0  0 0.013125 0  0.04962452342047931 0.01478673066448802 0  0.0153754765795207 0.01521326933551198 0  0.0771774565913315 0.01322498191305479 0  0.01857756431135545 0.01840228599899994 0  0.04642243568864456 0.01159771400100006 0  0.08125000000000002 0.01155637254901961 0  0.08317650804863432 0.0118234919513657 0  0.08288217288011697 0.01511353252923977 0  0.02837253504384828 0.0117177464035174 0  0.03896057962520807 0.01831163685754031 0  0.01125 0.0114244162490927 0  0.00935910490099115 0.0119067901980177 0  0.02946078431372549 0.01495404411764706 0  0.02875 0.0185829434466942 0  0.002968749999999999 0.0225 0  0.064375 0.016875 0  0.00296875 0.0075 0  0 0.001875 0  0 0.005625 0  0 0.009375 0  0 0.020625 0  0 0.024375 0  0 0.028125 0  0.06062500000000001 0.01812500000000001 0  0.008303571428571429 0.01446428571428572 0  0.01375 0.01865917058160413 0  0.05137790313978056 0.01143372888932909 0  0.04125000000000001 0.01131513063942604 0  0.04101690263896279 0.01844430285842771 0  0.02399563533148224 0.01844349395710867 0  0.08125000000000002 0.01868815426145731 0  0.05354684380692146 0.01145463537600848 0  0.01699195823639423 0.01315138909884649 0  0.07598357371794873 0.015 0  0.04098357371794872 0.015 0  0.003744047619047619 0.00375 0  0.003344630281690141 0.02580853873239437 0  0.04625 0.0187354532243972 0  0.06388392857142858 0.01138392857142858 0  0.06375 0.01375 0  0.05875 0.01375 0  0.06375 0.02 0  0.00622802734375 0.01372802734375 0  0.003630681818181818 0.001369318181818182 0  0.003630681818181818 0.02863068181818182 0  0.06125 0.01625 0  0.06125 0.01125 0  0.05625000000000001 0.01 0  0.05875 0.01125 0  0.06125 0.01375 0  0.08337864763241221 0.0183786476324122 0  0.05213634138653413 0.01674432930673294 0  0.04375000000000001 0.01 0  0.07424178685897437 0.01529258578431373 0  0.03924178685897436 0.01529258578431372 0  0.03410139294454583 0.01843406022904556 0  0.03089860705545417 0.01843406022904556 0  0.02094160484316717 0.01850229584291991 0  0.04375000000000001 0.02 0  0.04437042160883325 0.01820701498672512 0  0.04816311705429156 0.01600061344661149 0  0.07151224904251052 0.0114127410511319 0  0.04395528506193162 0.01639387970349481 0  0.0128750358694518 0.0167500179347259 0  0.02855808448399799 0.01642839899839741 0  0.02812690373330794 0.01340955081400569 0  0.08358500641945087 0.01351822349116885 0  0.05590277777777778 0.01173611111111111 0  0.06683110430364615 0.01164926404662283 0  0.02573206694914602 0.01842532451809762 0  0.01438126661842046 0.01166701193099454 0  0.02384283211216029 0.01526549696571563 0  0.03625 0.02 0  0.004609375000000001 0.0182421875 0  0.003398437500000001 0.01943359375 0  0.001728307845744682 0.01894718251329787 0  0.004377805359085963 0.01656966216675735 0  0.04649673309852075 0.0153889662370871 0  0.03615513600614297 0.01592654988586041 0  0.03316985071935832 0.01598763605018279 0  0.03110111603888768 0.01529816275177977 0  0.01370614113484869 0.0138804542047638 0  0.04930041102671841 0.01842260568883502 0  0.07875000000000001 0.02 0  0.0745395359848485 0.01165101111925709 0  0.03860755698543604 0.01373741558556884 0  0.02605038706571737 0.01573944002207753 0  0.07559826163500957 0.01841729376139847 0  0.04437500000000001 0.01149157931286774 0  0.06874116707361365 0.01454618473032123 0  0.003761917372881356 0.0239307468220339 0  0.003984374999999999 0.01125 0  0.003768503289473684 0.01392539576480263 0  0.001796875 0.0111328125 0  0.003761917372881356 0.008930746822033899 0  0.005 0.00625 0  0.003761917372881355 0.0210692531779661 0  0.06633928571428571 0.01410714285714285 0  0.006484375 0.01125 0  0.08364120589325512 0.01657288979763549 0  0.03576267476503373 0.0184116442851204 0  0.07370875846579374 0.0137848203678562 0  0.06964285714285715 0.01758928571428571 0  0.05520833333333334 0.01833333333333333 0  0.06491071428571429 0.01839285714285714 0  0.0510098951944636 0.01559941474766356 0  0.01786087179886325 0.0115702210443714 0  0.01972197383235524 0.01160576093166696 0  0.01804697593127788 0.01433503795474974 0  0.001644074528704677 0.01642892723865279 0  0.00125 0.03 0  0.001497685185185185 0.001267746913580247 0  0.07315451164202422 0.01643443118912983 0  0.001233906745910645 0.0140625 0  0.01162635071030191 0.01362229857939618 0  0.01528023503083844 0.01845923557506155 0  0.06625 0.02 0  0.07695012019230771 0.01624387078484555 0  0.03139091092855769 0.01320776147621796 0  0.03857339107781042 0.01675295051810485 0  0.001754993120977522 0.02590789105493891 0  0.002288757784711197 0.00412546923654445 0  0.07914382119690884 0.01404430049871201 0  0.001391810103286306 0.01257390899021902 0  0.0419501201923077 0.01614675005432421 0  0.001484375 0.007018229166666667 0  0.001484375 0.02201822916666666 0  0.048
[...]
<PointData  Scalars="pressure"> 
<DataArray  type="Float64"  Name="pressure"  format="ascii">-4.0987610481939190e-05  1.0445859698565603e-02  6.6686499147355907e-03  3.3053768323691602e-03  3.8408825540089367e-03  1.5663753193890895e-03  1.0393007962302069e-02  -3.9439204232445578e-05  1.0391991384802525e-02  1.0892329527947886e-02  1.1018353448769138e-02  5.1004876459063049e-03  5.1009736606484430e-03  7.6570091817902246e-03  7.6569476765723154e-03  2.5416275848208140e-03  2.5430137630045838e-03  6.3784993910871602e-03  6.3777522614704629e-03  1.2609898251661064e-03  1.2650194702353661e-03  8.9362881196098348e-03  8.9329238071275945e-03  3.8170565697383759e-03  3.8200153044607127e-03  1.9037103464415921e-03  1.9036570440342053e-03  4.4614652285558743e-03  7.0170922596303024e-03  7.0174414158937900e-03  5.7400867676405719e-03  9.5734583534576416e-03  8.2953526229321249e-03  3.1818779451721854e-03  -6.1660714430261591e-20  4.4598894041528491e-03  1.5831618534803925e-03  5.7421554033978270e-03  6.0585755106151865e-03  4.1406471485125537e-03  8.2950684949250671e-03  9.5839814548476041e-03  7.3366063111888090e-03  9.2529733680896172e-03  6.2357241554958527e-04  6.1859543456363518e-04  6.6976318279559121e-03  5.3659836349580665e-03  2.5422719171857926e-03  1.1260978151547665e-02  1.0154251019668633e-02  8.0287806205138687e-03  8.9060731098590334e-04  1.1439868334748780e-02  3.1810889051631834e-03  3.1786081355458773e-03  8.6409719227331667e-03  4.7531693933920913e-03  2.0628308073607302e-03  9.7310063457055618e-03  3.6615198218931224e-03  1.1230287727473599e-02  1.0571293688232336e-02  1.0519443895669859e-02  1.1404384517464479e-02  4.3927255960959341e-04  2.2222356606192780e-03  9.8885786366541637e-03  2.8618950153115347e-03  3.5015359593078069e-03  2.8619241187716124e-03  3.6025505329785292e-04  2.1997543172577795e-03  8.6142735500285422e-03  8.4545938400875011e-03  4.7750537606158928e-03  5.0174829500841808e-03  1.0366011618790168e-02  1.5445019674872438e-02  1.5217520988989966e-02  1.0393303438955597e-02  8.9053211012795289e-03  4.4881136933634823e-03  6.6952886652729988e-03  6.4110745749784591e-03  6.0568779640771233e-03  6.9842795607118766e-03  7.3356515176765860e-03  4.1408755838387244e-03  9.2539663030145186e-03  5.7123531682202969e-03  6.0599357930791959e-03  7.9746765451042187e-03  7.6826895464762058e-03  1.2368312961137504e-03  1.5832658401354217e-03  1.2366805025034902e-03  1.5790145752775863e-03  5.7125066394011510e-03  7.9758199644003030e-03  7.8159950948342074e-03  5.4189142975956317e-03  5.4217359699329686e-03  9.5013385309020712e-04  9.4494577344330364e-04  4.4140573292686686e-03  1.8319997699330058e-03  3.8743917309367864e-03  1.1281610728229212e-02  1.1964654458285363e-02  9.4146891400348279e-03  8.9805677635127444e-03  9.5702161608206757e-03  6.2180397427239690e-03  1.0669995192493434e-02  3.9810488685578481e-03  1.7429859323350577e-03  1.1687516985043268e-02  1.1128418417654003e-02  7.4578629917962276e-03  1.0753079925278164e-02  7.0436695595450525e-03  4.1381272854383467e-03  7.5658664032150866e-04  8.3022102061754682e-03  7.0731499913529567e-04  5.0921630301441582e-03  2.3825368404072401e-03  1.0060235067701465e-02  3.5052470294266707e-03  3.3420917159044045e-03  1.1013422215743042e-02  1.0891295961538689e-02  1.1851231994275423e-02  1.1587996633618959e-02  4.7798935470893204e-03  8.6091166846033792e-03  6.6975732266168469e-03  6.5381603384498249e-03  5.4048697711870089e-03  -1.2276775838126746e-06  3.0430193428625626e-04  8.1392278413535968e-03  2.2202557273129950e-03  9.2563079047857447e-03  7.3747654409456161e-03  6.1032626695716654e-03  -1.1260405317816732e-06  7.3326334313321669e-03  1.0337926154192281e-02  9.9013393787069325e-03  9.9145269865061805e-03  2.5079451955135113e-03  9.2128264155789501e-03  2.8620362828189589e-03  3.1819123434717622e-03  3.5014276900202147e-03  2.8601863864960641e-03  2.8563201712132284e-03  3.0560275300737616e-04  5.4064265965888293e-03  7.9881980342626398e-03  1.5274878690318347e-03  1.0173979176576467e-02  6.3421423717016610e-03  6.6975667120527261e-03  7.6144838850014818e-03  6.1231364575392772e-04  8.3111770163428658e-03  4.6797845686073602e-03  8.7144725492209456e-03  4.3002544777028173e-03  4.1441596020212017e-03  1.4693244044646561e-03  5.9450214065211622e-03  9.8528790881042020e-04  4.7512217436998985e-03  6.8571164405870260e-03  2.0628760028650168e-03  1.1035870842542811e-03  8.7736789527871287e-03  2.1428048975464021e-03  3.9010656165447454e-03  2.3025488317993301e-03  1.8520615782154817e-03  3.5822528738344303e-03  9.9567307497190598e-03  9.7407356747443927e-03  9.4922529808726275e-03  3.6613829598941740e-03  3.4217475579258519e-03  5.1111797609139052e-03  1.0441429138362811e-02  1.0418945818834882e-02  4.5081651191442853e-03  8.8858386860522845e-03  9.8497951678276760e-04  8.4762879877685066e-03  4.9175053954513192e-03  4.6258518432369910e-04  2.1622131460696966e-04  2.6155029039563868e-04  7.2248186930219949e-03  5.8721712093868349e-03  9.4121587529025098e-03  9.6532788659895383e-03  7.0860152513045086e-03  7.1766681514371126e-03  1.1013228343511363e-02  2.6221505735994116e-03  1.0894626019035564e-02  1.1195298055055883e-02  1.1102481629893564e-02  1.0690983652582428e-02  1.0774258399032569e-02  1.1248568510954024e-02  1.1288431636390995e-02  3.1019121473830871e-03  9.7820656995146246e-03  9.0950987498429128e-03  4.2839463188630404e-03  5.5793144447945043e-03  5.6093140261259215e-03  7.7841620795577188e-03  4.6197003601664948e-04  4.0070515322019745e-03  8.6790883695325310e-03  1.1376679014982068e-03  5.6132389022081021e-03  1.1459053873426689e-02  1.1568155673800453e-02  4.9394297258668375e-03  2.6848346824218062e-03  2.7020977520938517e-03  3.3417188989799422e-03  2.6997761629087309e-03  1.0030258526295749e-02  1.2400642788196109e-02  1.2631137253409841e-02  3.0219720697874652e-03  3.0217760986189293e-03  3.6627500168521605e-03  3.3416453032727089e-03  3.0219701821734540e-03  1.8760645778218636e-04  4.1871133120537892e-03  5.2566007996255899e-03  1.3603662295715434e-03  5.8359559384222126e-03  6.4928503566955295e-03  6.9027484906153420e-03  8.1747022007183246e-03  5.2578102654840262e-03  5.1802114252616936e-03  4.6948887475310877e-03  1.7097063393240173e-03  5.2331450198728454e-03  9.2061062463111385e-03  7.2013853083422643e-03  7.2564569265660779e-03  1.7284949849718007e-04  3.7055889660136719e-03  2.3078249204524170e-03  7.5627563768434223e-03  9.0120181523867075e-03  7.8039629459269230e-03  6.2215652151533475e-03  1.0299086454921629e-02  1.0541904766216421e-02  1.0571407343709198e-02  1.0242179282345529e-02  4.9080922315155855e-03  6.2305357279336246e-03  6.6120210158297759e-03  6.8764017453902546e-03  9.0987044904335523e-03  4.5491660649928951e-03  7.8312415838785205e-04  1.3222648836064554e-03  5.9169524271812093e-03  7.5218714931653769e-03  1.1866026823435386e-03  5.1794950711243097e-03  2.0639390079266648e-03  1.1243523690307535e-02  1.0369925360183632e-02  1.0263987197014796e-02  1.0507875561457755e-02  1.0686798089226218e-02  1.1068743127422790e-02  1.0776046615452469e-02  2.3710005478140232e-03  1.0039814711509183e-02  1.6566332849297049e-04  6.2811767016027536e-03  1.4285836126731680e-03  1.9487346058346742e-03  3.7945739136112304e-03  2.5535165781695149e-03  4.3310562384545883e-03  8.5681958571794722e-03  8.3303965639990128e-03  8.5444106917260919e-03  1.0405238182849073e-02  1.1790078191902214e-02  1.1308522306454830e-02  1.4993419938325555e-03  1.0385280830929060e-02  9.3638415417344172e-03  8.8984834579931820e-03  2.3848666345702499e-03  1.0140510223326888e-03  6.8393104140235883e-03  5.9214890922851164e-03  1.1475378631950705e-02  1.1316123226112543e-02  7.3384797840165585e-04  1.0427574967507354e-02  5.4896291047476422e-03  1.0952486144970458e-02  1.0949218704968551e-02  4.5936181687454680e-03  4.4955597394372966e-03  8.8006556612870799e-03  4.2755958462286584e-03  4.8934310530902737e-03  8.5007729900261255e-03  5.2424256246767584e-03  8.1799275180903623e-03  5.4896110046348734e-03  4.0110258793699186e-03  5.7581622502587649e-03  9.0745034250349719e-03  8.1588913550617367e-03  7.9910607122547425e-03  7.6477200781061632e-03  7.8165058930029247e-03  7.4983524455401341e-03  7.9610121724942723e-03  2.0172174603510533e-03  1.7142438907731450e-03  9.0653731559229688e-04  1.1138254657745501e-02  1.1156562349783045e-02  1.0788785975088063e-02  7.0421737472914948e-03  1.1541753330552070e-02  7.4397807605626779e-03  6.3904256367042734e-03  1.8378440063057586e-03  2.2226765964281901e-03  3.8212773669600276e-03  2.3025387781706432e-03  1.6321248037781421e-03  9.6020939903400434e-03  6.3647281495070058e-03  6.2144246256738440e-03  6.1074637457067902e-03  9.8698638069045358e-03  1.0086706177639813e-02  3.2085639625170307e-03  2.4623759241702292e-03  3.4218762440749112e-03  4.1146996501415260e-03  6.1775822591023160e-03  9.4147636484111265e-03  2.7822385896851356e-03  9.5328412576154934e-03  9.2828158822653491e-03  9.9574334316388131e-03  1.7211693001451445e-03  3.5018351730185648e-03  4.3224110938139498e-04  6.5221928824345226e-03  9.7307387942262378e-03  1.8870555751037547e-03  3.8387806187749601e-03  5.3053232077767006e-04  7.0305236969569898e-04  7.6496092145751757e-04  1.1194001704804578e-02  3.9811710495715972e-03  5.7774362311958699e-04  7.7758791995538102e-04  6.4953158112938069e-04  8.7720615328463428e-03  4.6198949485912561e-03  1.0494650665215514e-02  6.7764432896285313e-03  1.8907336504481820e-03  1.0099109882647518e-02  9.7318345033045629e-03  9.8146385196191573e-03  7.8571597077216702e-03  8.4546572212333554e-03  7.6105699899144058e-03  3.6626573814063502e-03  2.7021168388225592e-03  2.0653257612703703e-03  3.0230253317943588e-03  7.8507463207727352e-03  4.8450560823984894e-03  9.5040923906191312e-03  6.0607763470501971e-03  1.1327820331161387e-02  1.1292182683284569e-02  1.1971194997956555e-02  1.4207944530585746e-03  8.7865205399583080e-03  6.9549429474065842e-03  1.0525180569834106e-02  9.6439474609030674e-03  5.3394293175886729e-03  8.1352645512486055e-03  1.0326422473973328e-02  6.0628251889740905e-06  8.3436778998079834e-05  2.9477691444167661e-03  3.2563370587469494e-03  1.4241567756914852e-03  5.8980734033935106e-03  2.0030720787589740e-03  6.6690780288728314e-03  6.6825139670517375e-03  6.5412734543088338e-03  8.2867900961130798e-03  8.4732347994527137e-03  3.5053717179228572e-03  7.3764456498774311e-03  5.3498362404897689e-03  6.1216614907417723e-03  6.0704115442825968e-03  8.0248187479627156e-03  1.4729604220534696e-03  9.1727381870082853e-03  7.3606375168679926e-03  7.5237504198612925e-03  7.3376752954282800e-03  6.2582904698461044e-03  9.3413798813174881e-03  2.5248215939100887e-03  2.5251178764703380e-03  2.3537944969260643e-03  1.0618148422406413e-02  4.0357558917780692e-03  1.0347567773669457e-02  8.1452863279330469e-03  7.9440483399684150e-03  1.7417904344121922e-03  1.1052690406181292e-03  4.6175235493922462e-03  7.4980532983943181e-03  1.7445229917785782e-03  6.5369083634072029e-03  2.8620221192827214e-03  2.3806346550965642e-03  2.7026129527554935e-03  3.9833181756797238e-03  4.6009914917319843e-04  7.8140908441618473e-03  4.2999956887234793e-03  5.5788231492430998e-03  5.8979399266307977e-03  4.6075454772553112e-04  1.1031684776972651e-03  2.0629401979807452e-03  4.3003146318769826e-03  5.5799312299976180e-03  1.1210994899885640e-02  -1.1047182540281311e-07  3.5015837241185481e-03  2.8622971605535316e-03  9.0949151399560158e-03  9.4121346444226255e-03  9.7423206120443029e-03  8.7736976760132458e-03  1.0718187090269417e-02  9.0903069829131322e-03  1.4348484742860173e-02  1.1473528576283736e-02  1.2054356329349451e-02  1.3981005026510731e-02  1.1845728686342226e-02  1.0065788229998414e-02  1.0158368261136901e-02  1.0814985542159717e-02  6.9081623769902145e-08  8.1362145617234084e-03  2.8620207608463255e-03  1.1686387203760874e-02  7.1759956374380669e-03  7.1784251994855353e-03  8.4540242749426581e-03  6.8559113991092900e-03  1.2458651237048556e-02  7.6266032995619057e-06  6.8602425522900495e-03  3.9551303265826726e-03  3.0219622805104937e-03  3.1818635632910332e-03  3.3416537686986321e-03  3.1819715992420306e-03  3.3410731429686430e-03  3.0220633144680343e-03  3.0285426537103926e-03  4.9435911050443255e-03  4.9391432857613356e-03  3.3427232550435598e-03  8.8256713444995617e-05  5.5699785539848915e-03  8.6195965515086100e-04  4.6997786533439483e-03  5.5649863908721429e-03  4.9765180647426636e-03  1.0166635163049810e-02  7.8028438416125473e-03  3.7146039103416618e-03  2.2198742587578326e-03  1.3438417968681814e-03  3.0468747876671474e-04  5.2455840965446943e-03  1.6755285728700105e-03  3.7397519268179617e-03  1.0663533849460262e-02  1.0386595301014866e-02  6.7476092960996594e-03  6.5479044215806829e-03  8.7269098311852612e-04  1.0991888591262645e-02  1.0470199095442853e-03  1.1727659865871085e-02  1.0696122536881986e-02  7.1135287499306315e-03  3.5726645982630807e-03  1.9158213012747719e-03  3.8506719875115534e-03  2.6623649006397914e-03  5.8517563394200139e-04  8.3244781589788732e-03  4.3371787525180944e-03  1.0266667284325143e-02  1.1313910974235755e-02  9.0678356169611885e-03  1.3857648878644114e-03  1.2966199270867435e-03  5.7846833268046672e-03  1.0205172446259495e-02  1.0032546347670061e-02  1.0284376551149839e-02  4.6116628224698161e-03  6.3711716739832877e-03  3.0115986364595126e-04  6.8594074084089227e-03  7.6666929087828824e-03  2.7188783268784645e-03  3.7001696566251788e-03  8.0992673156102795e-03  1.3257194918725697e-03  8.6183277497202618e-03  4.7328835012701714e-03  4.6999470716928300e-03  8.6474768122236836e-03  1.5741650435027422e-03  9.4592502541974016e-03  4.8949578316500814e-03  5.9814835409932729e-03  9.3590997622284410e-03  6.1388693115127361e-04  1.1009483543443067e-03  4.8203768602705856e-04  8.3223553659177441e-03  8.3672823078455583e-03  9.9233043112710827e-03  1.2699369157726775e-02  2.1530995581984587e-03  1.6001258546873556e-03  5.8365918123738300e-03  1.0040941338283689e-02  6.5001353666518840e-03  1.1073558016514745e-02  6.5305856315432667e-03  4.1454270783007523e-03  7.5136265518686027e-03  7.0408099063322648e-03  8.7699987410623185e-03  3.3253133803247382e-04  5.4811628737819282e-03  1.0141189711646266e-03  5.0453099491293250e-03  9.0056160787570332e-03  1.2201037550572315e-02  5.9774955843591203e-03  1.5019832144256588e-03  7.7305289888128879e-03  8.4492820253591274e-04  4.4286834560932648e-03  9.8533650882327763e-03  1.0496945521813791e-02  2.9019037851935140e-04  1.3309484878845036e-04  4.3800056435582876e-03  6.7260917990124075e-03  4.0092330286830994e-03  4.2791265010270838e-03  5.8188096843619390e-03  1.9779451122642270e-03  8.1768124747497711e-03  9.1081205408242976e-03  1.1035872250296898e-02  1.0842829226543550e-02  1.1074342838691709e-02  9.2344448954752040e-03  2.4620370326479974e-03  1.0176968478980999e-02  9.6516207937336895e-03  9.8354579700320223e-03  9.7359385117996473e-03  1.3629620413558984e-03  1.1380077714329040e-03  5.9589956380142039e-03  4.5351493060343390e-03  4.1433149464361026e-03  6.7658478834066865e-03  6.2171527963794694e-03  4.2205357427677614e-03  5.7370257733081256e-03  5.7283224482342476e-03  1.1236871543186753e-02  8.8597066031545768e-03  6.2884617220054133e-03  1.7145149443673863e-03  7.4955781125876468e-03  7.2433938000380123e-03  6.0468198279033884e-03  7.1296376217117978e-03  8.3744963180397806e-03  1.0826813602208992e-02  1.0441013020389430e-02  6.6180227943813917e-03  1.1287754578648493e-02  6.9597037545292752e-03  6.9367465296601557e-03  1.0951655037196178e-02  1.0861098284050854e-02  1.0839360754306649e-02  5.0403086380746637e-03  5.0733578342816868e-03  8.5713120002730066e-03  6.8276384194928047e-03  5.3576839030673243e-03  1.1165003460494106e-02  1.0764760807370962e-02  6.2389775205335127e-03  9.6529049447668085e-03  1.0475752076216368e-02  1.0483396474862914e-02  7.8191221419300573e-04  4.4125728268955408e-03  7.9256408930551952e-03  4.2487540428128555e-04  5.4242838427586435e-04  3.7960288138434083e-04  5.2389359515696808e-03  5.1146763372348202e-03  5.0311817488932330e-03  4.3943787213370344e-03  2.1242552314536182e-03  2.1428479935550501e-03  1.0407388472574433e-02  4.4615739478573325e-03  8.9579692843303194e-03  8.7528293660715049e-03  4.6267728353133640e-03  1.0235476108707321e-03  1.2183606689106842e-03  1.2080259829529922e-03  1.0847664427922940e-03  8.6938834530729328e-03  8.8881377252345503e-03  8.8533209854245332e-03  5.9748531506901960e-03  2.6559199953722899e-03  3.1019636714920036e-03  2.7498636256461347e-03  9.6058214195920040e-03  2.1428905865942764e-03  2.5822329199498002e-03  3.5820614746183946e-03  2.2625638658696971e-03  2.1028259101107142e-03  4.0217263178615060e-03  9.9676349819109132e-03  9.4937389407512771e-03  3.4211434404293399e-03  9.8261901979872762e-03  2.3425215090652164e-03  2.4224031120522269e-03  2.5022730497987746e-03  3.4621999065622758e-03  3.3418613338734096e-03  3.2155458336880099e-03  2.9883674394541762e-03  3.3105101962024089e-03  3.1437873922131100e-03  7.3536171642244494e-04  1.0570487250057070e-04  4.8139043104692726e-03  3.7418934416316024e-03  8.9076381344129938e-04  5.6151721798591934e-03  7.2101244987339049e-03  6.9970853407770777e-03  9.5243274698426951e-03  7.2390377826776495e-03  8.0676912652155406e-03  8.4107614998752828e-03  6.3880403108601521e-03  9.7710694928763338e-03  9.2872208174727706e-03  7.9188571135351362e-04  1.9832464952253049e-03  7.7832203771101864e-03  7.6616555409365905e-03  6.7775121892066090e-03  3.4100733145926704e-04  2.1574077810862746e-04  9.0834248847471402e-05  5.0736194339345104e-03  9.4069079445315822e-03  5.4896130224975593e-03  5.6619145946677522e-03  5.6207268018329719e-03  1.1436909703581497e-03  6.4438710475916896e-03  5.3660520933180890e-03  5.6939354272059475e-03  4.8256193465748363e-03  8.5361805513174579e-05  7.1179914642180960e-03  7.2568200988413932e-03  7.3356145958765225e-03  1.1422340869722228e-02  1.0488715744253535e-02  3.7414114390798051e-03  3.6184805185520965e-03  9.0158922121820234e-04  8.7727028370837724e-03  6.4879633039568339e-03  8.6679540777508633e-03  5.8376440271437592e-04  1.1048224115883831e-02  8.2153993349662578e-03  7.7382828609319949e-03  4.5837152474560664e-03  1.1005231372693680e-02  5.2945460430358013e-03  5.2247597428575210e-03  5.1435228820433899e-03  9.6188667739751967e-03  9.3316602487452504e-03  1.1105370540993444e-02  8.4302571132943687e-03  9.2291215126619648e-03  7.0970925712392280e-03  4.8166274551950834e-03  1.0233250224713363e-03  4.1089445851549573e-03  4.9396700030635617e-04  8.4480320846437827e-03  1.0886704565041056e-02  1.1136861879726971e-02  1.0596414694676459e-02  2.6621636893422325e-03  1.1192911468300900e-02  1.0789291311486938e-02  1.0462797096275190e-02  1.0392568720285388e-02  1.1408959287634565e-02  1.0498833657663378e-02  1.1340537927257420e-02  7.9739862708902726e-03  1.9653776784867298e-03  9.0056667330723136e-03  1.5953674773743435e-03  1.1389579834359963e-02  8.6720437401129544e-03  8.5679016736746553e-03  5.5016092395026861e-03  7.9022730608306665e-03  7.8836618571662236e-03  7.7358439450309919e-03  1.2620070819938532e-03  6.7554332928998018e-04  8.4384488726634930e-03  1.2194782997319128e-04  2.4430478739074168e-04  2.7622113438828121e-04  5.8177104223850352e-03  5.8165735305173829e-03  1.1721503084284228e-02  6.2734637672368339e-03  9.6702518221530708e-03  5.7274758920978349e-03  8.9876145352439131e-03  9.1755559299849850e-03  1.4206743069840419e-03  1.3434089274624575e-03  1.1323499614995118e-02  7.3667067683755505e-03  9.3870264400622971e-03  4.9688357789498296e-03  4.1868222929732470e-03  4.3505592542898491e-03  3.7316118860046852e-04  3.5938987281644921e-03  5.4629798166068539e-03  5.4985989143080732e-03  4.5814371930193833e-03  5.4194488301910590e-04  7.1383372638920096e-03  9.8438598806159048e-03  8.5497117812891633e-03  6.9375075675125134e-03  6.4580922083109860e-03  6.6075744872457869e-03  1.0310096203526449e-02  1.0382088304960737e-02  1.0581901731594755e-02  4.0488365009618572e-03  3.912