<?xml version="1.0"?>
<VTKFile type="UnstructuredGrid"  version="0.1"  >
<UnstructuredGrid>
<Piece  NumberOfPoints="1079" NumberOfCells="1944">
<Points>
<DataArray  type="Float64"  NumberOfComponents="3"  format="ascii">0.08500000000000001 0.02 0  0.005 0.02 0  0.005 0.03 0  0 0.03 0  0 0 0  0.005 0 0  0.005 0.01 0  0.08500000000000001 0.01 0  0 0.015 0  0 0.0075 0  0 0.0225 0  0.04500000000000001 0.02 0  0.04500000000000001 0.01 0  0.025 0.01 0  0.025 0.02 0  0.065 0.02 0  0.065 0.01 0  0.035 0.02 0  0.035 0.01 0  0.07500000000000001 0.02 0  0.07500000000000001 0.01 0  0.015 0.02 0  0.015 0.01 0  0.05500000000000001 0.01 0  0.05500000000000001 0.02 0  0.07000000000000001 0.01 0  0.07000000000000001 0.02 0  0.05 0.01 0  0.03 0.01 0  0.03 0.02 0  0.04000000000000001 0.01 0  0.01 0.01 0  0.02 0.02 0  0.06 0.015 0  0.08500000000000001 0.015 0  0.05 0.02 0  0.07250000000000001 0.015 0  0.04000000000000001 0.02 0  0.03750000000000001 0.015 0  0.0525 0.015 0  0.02 0.01 0  0.01 0.02 0  0.0275 0.015 0  0.0125 0.015 0  0.08000000000000002 0.01 0  0.08000000000000002 0.02 0  0.0325 0.014375 0  0.04291666666666667 0.015 0  0.065 0.015 0  0.005 0.005 0  0.005 0.015 0  0.02208333333333334 0.015 0  0.07791666666666668 0.015 0  0.005 0.025 0  0.06 0.01 0  0.06 0.02 0  0.01729166666666667 0.01572916666666667 0  0.04770833333333334 0.01427083333333334 0  0.06875000000000001 0.01625 0  0.008750000000000001 0.01625 0  0.05625000000000001 0.01625 0  0 0.00375 0  0 0.01875 0  0 0.01125 0  0 0.02625 0  0.08145833333333334 0.01354166666666667 0  0.0675 0.01 0  0.0075 0.0125 0  0.0625 0.0175 0  0.0575 0.0125 0  0.0625 0.0125 0  0.08207465277777778 0.01707465277777778 0  0.06767857142857144 0.01321428571428571 0  0.0175 0.01 0  0.01875 0.01291382575757576 0  0.0475 0.02 0  0.04564168086314595 0.01679860519591141 0  0.00296875 0.0125 0  0.0025 0.03 0  0.0025 0 0  0.00296875 0.0175 0  0.01521990740740741 0.0132349537037037 0  0.0497800925925926 0.0167650462962963 0  0.0325 0.02 0  0.03474264705882353 0.01674632352941176 0  0.03750000000000001 0.02 0  0.03025735294117647 0.01674632352941176 0  0.0275 0.02 0  0.0525 0.02 0  0.0125 0.01 0  0.04020833333333334 0.01322916666666667 0  0.03750000000000001 0.01 0  0.0225 0.02 0  0.02479166666666667 0.01677083333333333 0  0.07520833333333335 0.01322916666666667 0  0.07250000000000001 0.01 0  0.07520833333333335 0.01677083333333334 0  0.07250000000000001 0.02 0  0.04020833333333334 0.01677083333333333 0  0.0225 0.01 0  0.02375 0.01262152777777778 0  0.04250000000000001 0.02 0  0.04250000000000001 0.01 0  0.07750000000000001 0.01 0  0.07750000000000001 0.02 0  0.05036151960784314 0.01294424019607843 0  0.0705560064935065 0.01284699675324675 0  0.05458333333333334 0.01291666666666666 0  0.0021875 0.024375 0  0.005 0.0275 0  0.01125 0.0175 0  0.01463848039215686 0.01705575980392157 0  0.01 0.01375 0  0.03625 0.0125 0  0.0021875 0.009375 0  0.05375000000000001 0.0175 0  0.07125000000000001 0.0175 0  0.005 0.0025 0  0.0021875 0.005625 0  0.02655220103578155 0.01234889948210923 0  0.002187499999999999 0.020625 0  0.02979166666666667 0.01302083333333333 0  0.0525 0.01 0  0.07895833333333334 0.0125 0  0.01994277885235332 0.01704213007736944 0  0.07934656179076068 0.01733823814273861 0  0.04505722114764669 0.01295786992263056 0  0.06625 0.0175 0  0.006250000000000001 0.0175 0  0.05750000000000001 0.02 0  0.05875000000000001 0.0175 0  0.005 0.0225 0  0.005 0.0075 0  0.002375 0.027375 0  0.002375 0.002625000000000001 0  0.0475 0.01 0  0.0175 0.02 0  0.0325 0.01 0  0.03375 0.0121875 0  0.04261299435028249 0.01749205508474576 0  0.08500000000000001 0.0125 0  0.08250000000000002 0.01 0  0.02121963399965531 0.01224824108143494 0  0.0675 0.02 0  0.0125 0.02 0  0.02720152243589744 0.0175 0  0.03715165441176471 0.0175 0  0.08500000000000001 0.0175 0  0.0275 0.01 0  0.0025 0.0149560546875 0  0.0075 0.01 0  0.0075 0.02 0  0.06526785714285716 0.0125 0  0.01281031447005516 0.0125 0  0.0625 0.015 0  0.06 0.0125 0  0.05750000000000001 0.01 0  0.0625 0.02 0  0.0625 0.01 0  0.08250000000000002 0.02 0  0.04260103740101855 0.01252623201412851 0  0.02240052247582197 0.01750164767101344 0  0.07293583459427785 0.01238479732953041 0  0.005234374999999999 0.012265625 0  0.03528131980640358 0.01454684009679821 0  0.0325 0.01760027210036557 0  0.02532593822924343 0.01428227733767297 0  0.08009952069819683 0.01527145502895417 0  0.01987282359856536 0.01482587683689801 0  0.04828232595121382 0.01210233572595705 0  0.01671767404878618 0.01789766427404295 0  0.05125 0.01829007549029352 0  0.05247215456215357 0.01288882122882024 0  0.07338729919678716 0.01799385040160642 0  0.03838729919678716 0.01200614959839357 0  0.07717482110586968 0.01780301674207099 0  0.04771860040890012 0.01773306039388322 0  0.03125 0.01160380747126437 0  0.06875000000000001 0.01154265873015873 0  0.07625000000000001 0.01154065860215054 0  0.01625 0.01153997817696946 0  0.068125 0.018125 0  0.05437500000000001 0.015625 0  0.066875 0.015625 0  0.07039794950204951 0.01494384850614853 0  0.05687500000000001 0.018125 0  0.006875 0.015625 0  0.008749999999999999 0.01833333333333333 0  0.010625 0.015625 0  0.05625 0.01416666666666667 0  0.05812500000000001 0.015625 0  0.0449088595298192 0.01494528408816316 0  0 0.016875 0  0 0.013125 0  0.04962452342047931 0.01478673066448802 0  0.0153754765795207 0.01521326933551198 0  0.0771774565913315 0.01322498191305479 0  0.01857756431135545 0.01840228599899994 0  0.04642243568864456 0.01159771400100006 0  0.08125000000000002 0.01155637254901961 0  0.08317650804863432 0.0118234919513657 0  0.08288217288011697 0.01511353252923977 0  0.02837253504384828 0.0117177464035174 0  0.03896057962520807 0.01831163685754031 0  0.01125 0.0114244162490927 0  0.00935910490099115 0.0119067901980177 0  0.02946078431372549 0.01495404411764706 0  0.02875 0.0185829434466942 0  0.002968749999999999 0.0225 0  0.064375 0.016875 0  0.00296875 0.0075 0  0 0.001875 0  0 0.005625 0  0 0.009375 0  0 0.020625 0  0 0.024375 0  0 0.028125 0  0.06062500000000001 0.01812500000000001 0  0.008303571428571429 0.01446428571428572 0  0.01375 0.01865917058160413 0  0.05137790313978056 0.01143372888932909 0  0.04125000000000001 0.01131513063942604 0  0.04101690263896279 0.01844430285842771 0  0.02399563533148224 0.01844349395710867 0  0.08125000000000002 0.01868815426145731 0  0.05354684380692146 0.01145463537600848 0  0.01699195823639423 0.01315138909884649 0  0.07598357371794873 0.015 0  0.04098357371794872 0.015 0  0.003744047619047619 0.00375 0  0.003344630281690141 0.02580853873239437 0  0.04625 0.0187354532243972 0  0.06388392857142858 0.01138392857142858 0  0.06375 0.01375 0  0.05875 0.01375 0  0.06375 0.02 0  0.00622802734375 0.01372802734375 0  0.003630681818181818 0.001369318181818182 0  0.003630681818181818 0.02863068181818182 0  0.06125 0.01625 0  0.06125 0.01125 0  0.05625000000000001 0.01 0  0.05875 0.01125 0  0.06125 0.01375 0  0.08337864763241221 0.0183786476324122 0  0.05213634138653413 0.01674432930673294 0  0.04375000000000001 0.01 0  0.07424178685897437 0.01529258578431373 0  0.03924178685897436 0.01529258578431372 0  0.03410139294454583 0.01843406022904556 0  0.03089860705545417 0.01843406022904556 0  0.02094160484316717 0.01850229584291991 0  0.04375000000000001 0.02 0  0.04437042160883325 0.01820701498672512 0  0.04816311705429156 0.01600061344661149 0  0.07151224904251052 0.0114127410511319 0  0.04395528506193162 0.01639387970349481 0  0.0128750358694518 0.0167500179347259 0  0.02855808448399799 0.01642839899839741 0  0.02812690373330794 0.01340955081400569 0  0.08358500641945087 0.01351822349116885 0  0.05590277777777778 0.01173611111111111 0  0.06683110430364615 0.01164926404662283 0  0.02573206694914602 0.01842532451809762 0  0.01438126661842046 0.01166701193099454 0  0.02384283211216029 0.01526549696571563 0  0.03625 0.02 0  0.004609375000000001 0.0182421875 0  0.003398437500000001 0.01943359375 0  0.001728307845744682 0.01894718251329787 0  0.004377805359085963 0.01656966216675735 0  0.04649673309852075 0.0153889662370871 0  0.03615513600614297 0.01592654988586041 0  0.03316985071935832 0.01598763605018279 0  0.03110111603888768 0.01529816275177977 0  0.01370614113484869 0.0138804542047638 0  0.04930041102671841 0.01842260568883502 0  0.07875000000000001 0.02 0  0.0745395359848485 0.01165101111925709 0  0.03860755698543604 0.01373741558556884 0  0.02605038706571737 0.01573944002207753 0  0.07559826163500957 0.01841729376139847 0  0.04437500000000001 0.01149157931286774 0  0.06874116707361365 0.01454618473032123 0  0.003761917372881356 0.0239307468220339 0  0.003984374999999999 0.01125 0  0.003768503289473684 0.01392539576480263 0  0.001796875 0.0111328125 0  0.003761917372881356 0.008930746822033899 0  0.005 0.00625 0  0.003761917372881355 0.0210692531779661 0  0.06633928571428571 0.01410714285714285 0  0.006484375 0.01125 0  0.08364120589325512 0.01657288979763549 0  0.03576267476503373 0.0184116442851204 0  0.07370875846579374 0.0137848203678562 0  0.06964285714285715 0.01758928571428571 0  0.05520833333333334 0.01833333333333333 0  0.06491071428571429 0.01839285714285714 0  0.0510098951944636 0.01559941474766356 0  0.01786087179886325 0.0115702210443714 0  0.01972197383235524 0.01160576093166696 0  0.01804697593127788 0.01433503795474974 0  0.001644074528704677 0.01642892723865279 0  0.00125 0.03 0  0.001497685185185185 0.001267746913580247 0  0.07315451164202422 0.01643443118912983 0  0.001233906745910645 0.0140625 0  0.01162635071030191 0.01362229857939618 0  0.01528023503083844 0.01845923557506155 0  0.06625 0.02 0  0.07695012019230771 0.01624387078484555 0  0.03139091092855769 0.01320776147621796 0  0.03857339107781042 0.01675295051810485 0  0.001754993120977522 0.02590789105493891 0  0.002288757784711197 0.00412546923654445 0  0.07914382119690884 0.01404430049871201 0  0.001391810103286306 0.01257390899021902 0  0.0419501201923077 0.01614675005432421 0  0.001484375 0.007018229166666667 0  0.001484375 0.02201822916666666 0  0.048
[...]
<PointData  Scalars="pressure"> 
<DataArray  type="Float64"  Name="pressure"  format="ascii">-1.6926139972043479e-06  4.3129430408134602e-04  2.7564668691556734e-04  1.3456835776507587e-04  1.5604384046939574e-04  6.3204493286192384e-05  4.2902951218532750e-04  -1.6287088631097827e-06  4.2901939922843286e-04  4.4957784381779374e-04  4.5496510541628903e-04  2.1056866910207605e-04  2.1058879130847003e-04  3.1611192484220309e-04  3.1610944259752478e-04  1.0492884900225764e-04  1.0498616808516849e-04  2.6333002213179053e-04  2.6329928578758347e-04  5.2059150605663327e-05  5.2225502672326136e-05  3.6892665689321907e-04  3.6878579818921476e-04  1.5758371071121198e-04  1.5770580363096105e-04  7.8593185986872412e-05  7.8591061688513517e-05  1.8418739863428082e-04  2.8969370481100886e-04  2.8970807390367171e-04  2.3697391958275220e-04  3.9522559222490982e-04  3.4246547940207421e-04  1.3136098810784385e-04  -3.3282771993607108e-21  1.8412229379836064e-04  6.5359696401975673e-05  2.3705932674289608e-04  2.5012237242969822e-04  1.7094274345539351e-04  3.4245343603722493e-04  3.9567051759968207e-04  3.0288451026685428e-04  3.8199965095048232e-04  2.5744072901644346e-05  2.5538669220694931e-05  2.7650512785703152e-04  2.2152946189208720e-04  1.0495553105276421e-04  4.6480181298510169e-04  4.1920649058631402e-04  3.3146018617824112e-04  3.6768304936208640e-05  4.7247325198562025e-04  1.3132833467378822e-04  1.3122600968587699e-04  3.5673396064147693e-04  1.9623007716743790e-04  8.5162315914632015e-05  4.0173770216217567e-04  1.5116248387432392e-04  4.6338211091868372e-04  4.3646392435186333e-04  4.3423993550722090e-04  4.7086589273458374e-04  1.8135347643701175e-05  9.1743144847184478e-05  4.0823138416192780e-04  1.1815084095135445e-04  1.4455772110575434e-04  1.1815204015758984e-04  1.4873184120156429e-05  9.0815052852796403e-05  3.5563122695679550e-04  3.4903925482309225e-04  1.9713365738180180e-04  2.0714198511985048e-04  4.2792392334719550e-04  6.4178809471900761e-04  6.3206225814175078e-04  4.2909877780042090e-04  3.6764673226926341e-04  1.8528752912833697e-04  2.7640847882465821e-04  2.6467491785546471e-04  2.5005236966846105e-04  2.8833907817182842e-04  3.0284512492006343e-04  1.7095217049938616e-04  3.8203856370023565e-04  2.3582895448034377e-04  2.5017848786975858e-04  3.2922664834845371e-04  3.1717220446001717e-04  5.1061806191368903e-05  6.5364093479961815e-05  5.1055578308754527e-05  6.5188516329552518e-05  2.3583529537893647e-04  3.2927370307177348e-04  3.2267552432546886e-04  2.2371471878589912e-04  2.2383120639513868e-04  3.9225936812866164e-05  3.9011664587658488e-05  1.8223019555949543e-04  7.5632702668662063e-05  1.5995067681196266e-04  4.6586426220815062e-04  4.9439834628065037e-04  3.8867843738497470e-04  3.7075439469741927e-04  3.9509460257447092e-04  2.5670567989914721e-04  4.4043316166766629e-04  1.6435389460907969e-04  7.1957873791783709e-05  4.8249992381097217e-04  4.5929763581567686e-04  3.0789045442366033e-04  4.4399428930932413e-04  2.9079092731490436e-04  1.7083870533564743e-04  3.1235423914559402e-05  3.4274855020841527e-04  2.9201287044877834e-05  2.1022506967571865e-04  9.8361037865858319e-05  4.1533911103064770e-04  1.4471093033631649e-04  1.3797525312942959e-04  4.5478035555026908e-04  4.4954958436366221e-04  4.8949065729669762e-04  4.7822962559230262e-04  1.9733335887559130e-04  3.5541919842747789e-04  2.7650263374253184e-04  2.6992151599363113e-04  2.2313483448062601e-04  -5.0701113367399732e-08  1.2564117859560163e-05  3.3601978241418998e-04  9.1661439740542999e-05  3.8213958489932194e-04  3.0445988137406377e-04  2.5196724138044739e-04  -4.6501708290973540e-08  3.0272052704379259e-04  4.2678752027231067e-04  4.0875518837038050e-04  4.0932420487310928e-04  1.0353838875991834e-04  3.8034078089473880e-04  1.1815666654511806e-04  1.3136240000300594e-04  1.4455326990602836e-04  1.1808042531029552e-04  1.1792071801883502e-04  1.2617787387142484e-05  2.2319910908313843e-04  3.2978483874634783e-04  6.3061256888809742e-05  4.2000350044884692e-04  2.6182912768990568e-04  2.7650244637120961e-04  3.1435638289121869e-04  2.5279199702808994e-05  3.4311860957959839e-04  1.9320046163307585e-04  3.5976870524715207e-04  1.7753195226594964e-04  1.7108775387759636e-04  6.0660041448467067e-05  2.4543440823581461e-04  4.0677112542576756e-05  1.9614968593806249e-04  2.8308926374977282e-04  8.5164170118575951e-05  4.5560961928158144e-05  3.6221193565165314e-04  8.8463964214252736e-05  1.6105187442991723e-04  9.5058817450276466e-05  7.6460934222415800e-05  1.4789003373774496e-04  4.1105565285459023e-04  4.0214357697015914e-04  3.9187890350341994e-04  1.5115683499071603e-04  1.4126374764041548e-04  2.1101015601032676e-04  4.3108049734897106e-04  4.3011273523338689e-04  1.8611533439494149e-04  3.6684298349494210e-04  4.0664375606347242e-05  3.4993531124085330e-04  2.0301452358618044e-04  1.9097937298646619e-05  8.9269923627282792e-06  1.0798108469587056e-05  2.9826946836051648e-04  2.4242686752389759e-04  3.8856838884507251e-04  3.9852053566761299e-04  2.9253912470149639e-04  2.9628163088084910e-04  4.5476636573145489e-04  1.0825323413690211e-04  4.4968236407862946e-04  4.6205427583149170e-04  4.5820434672115941e-04  4.4129619082366713e-04  4.4486742813472130e-04  4.6447042426072256e-04  4.6611911425755473e-04  1.2805969727847511e-04  4.0384084455818585e-04  3.7548340001956134e-04  1.7685873572965670e-04  2.3033661995458326e-04  2.3157514452184805e-04  3.2136140886306579e-04  1.9072561682943581e-05  1.6542738614346416e-04  3.5830715971210046e-04  4.6967947890818686e-05  2.3173712991720634e-04  4.7299601057119778e-04  4.7778530911930052e-04  2.0391965750428558e-04  1.1084107001358699e-04  1.1155377405682971e-04  1.3795984782898413e-04  1.1145792119800195e-04  4.1408169710388320e-04  5.1207720485810704e-04  5.2222000752312383e-04  1.2475944589153675e-04  1.2475138431851480e-04  1.5121324476081763e-04  1.3795681426353681e-04  1.2475936801640622e-04  7.7456719735762459e-06  1.7286104577805941e-04  2.1701372527517580e-04  5.6161814087295019e-05  2.4093176229026935e-04  2.6805093737433309e-04  2.8497316467348974e-04  3.3748452695976378e-04  2.1706362776835258e-04  2.1386005004137687e-04  1.9382402442336474e-04  7.0584007665595359e-05  2.1604536181769543e-04  3.8006591583414888e-04  2.9730205835495259e-04  2.9957562246132088e-04  7.1361306568079648e-06  1.5298183875646617e-04  9.5276634618558917e-05  3.1222089788951853e-04  3.7205104006475612e-04  3.2217883316809501e-04  2.5685125747201240e-04  4.2521201113269162e-04  4.3525695806883723e-04  4.3647074823966966e-04  4.2284863284341382e-04  2.0262590436598358e-04  2.5722156638743210e-04  2.7297077928540832e-04  2.8388545488771826e-04  3.7563030791981270e-04  1.8780800206787986e-04  3.2331118128600895e-05  5.4588842405910484e-05  2.4427561366746701e-04  3.1053299078660399e-04  4.8988167502585294e-05  2.1383048227132135e-04  8.5208065286506183e-05  4.6431518279170688e-04  4.2807747143236755e-04  4.2372690784292359e-04  4.3376235663320932e-04  4.4112642703682958e-04  4.5686558804132064e-04  4.4495145040363080e-04  9.7884773799729804e-05  4.1446766331104283e-04  6.8394541168433521e-06  2.5931222581510391e-04  5.8978097031704994e-05  8.0451981211694678e-05  1.5665546627123829e-04  1.0541974021596772e-04  1.7880357980144267e-04  3.5372902957306719e-04  3.4391189515078186e-04  3.5274734845574553e-04  4.2958132188479915e-04  4.8723378344724220e-04  4.6609422637908026e-04  6.1899283339770223e-05  4.2873287835258861e-04  3.8657539909618910e-04  3.6736579385504521e-04  9.8457252421086985e-05  4.1864554706088040e-05  2.8235417314237307e-04  2.4446290606959536e-04  4.7385194712451007e-04  4.6701931040566894e-04  3.0296649801654744e-05  4.3046321370096623e-04  2.2663403375651034e-04  4.5205373364830867e-04  4.5210912366957151e-04  1.8964317318037857e-04  1.8559493398290219e-04  3.6332657067336113e-04  1.7651395906670392e-04  2.0202063090334291e-04  3.5094607230300412e-04  2.1642850118887578e-04  3.3770016403866017e-04  2.2663328555036700e-04  1.6559146767682317e-04  2.3772012677787503e-04  3.7463201888477765e-04  3.3683162037729939e-04  3.2990291316718263e-04  3.1572847659073550e-04  3.2269658573150917e-04  3.0956205273162201e-04  3.2866236222386778e-04  8.3279212507375670e-05  7.0771278583022526e-05  3.7426054841148364e-05  4.5992339110907389e-04  4.6048415700548949e-04  4.4532013762872002e-04  2.9072921343397724e-04  4.7620057745407954e-04  3.0714395145772701e-04  2.6382245695331957e-04  7.5874005151813111e-05  9.1761377578340058e-05  1.5775789925359614e-04  9.5058435763816114e-05  6.7381126303301718e-05  3.9641658960682064e-04  2.6276162189115188e-04  2.5655646176390127e-04  2.5214066322410116e-04  4.0747466564952585e-04  4.1644125881216666e-04  1.3246269633382967e-04  1.0165710744520713e-04  1.4126908224476565e-04  1.6987151772789540e-04  2.5503543918645188e-04  3.8868225675781331e-04  1.1486230879055939e-04  3.9355816996882408e-04  3.8323391206053855e-04  4.1109577376001515e-04  7.1057187771932383e-05  1.4457007779230949e-04  1.7845030756813426e-05  2.6926232038153823e-04  4.0171918342740828e-04  7.7905604857350235e-05  1.5848050656671524e-04  2.1902982167451113e-05  2.9025371748332669e-05  3.1581118705833345e-05  4.6195142270139385e-04  1.6435894162375331e-04  2.3852049990204438e-05  3.2102416957276017e-05  2.6815787847553042e-05  3.6214646964536734e-04  1.9072796710677264e-04  4.3328838835879325e-04  2.7975877962382043e-04  7.8057471070079295e-05  4.1693811825290199e-04  4.0176143336661944e-04  4.0517855642994424e-04  3.2437502928474196e-04  3.4904176484763973e-04  3.1419479078733525e-04  1.5120937044840740e-04  1.1155456066413863e-04  8.5265273232732342e-05  1.2480280904910221e-04  3.2411021132452305e-04  2.0002353105339504e-04  3.9236370782425218e-04  2.5021322876544750e-04  4.6753765985845300e-04  4.6593815441812835e-04  4.9462058917778282e-04  5.8656514729846645e-05  3.6274248444252184e-04  2.8712794209426082e-04  4.3447189808814164e-04  3.9814074527020916e-04  2.2043320843180003e-04  3.3585613013712161e-04  4.2632403600599030e-04  2.5028566902438323e-07  3.4460968424539916e-06  1.2169608191435016e-04  1.3443498502248966e-04  5.8795332416820607e-05  2.4349621597976877e-04  8.2695251680997976e-05  2.7532631134595672e-04  2.7588098817332924e-04  2.7005009035437131e-04  3.4211171653755214e-04  3.4980905518647369e-04  1.4471607904200737e-04  3.0452925476459256e-04  2.2086286543823375e-04  2.5272685287178550e-04  2.5061101081066582e-04  3.3129666159188161e-04  6.0810166947133176e-05  3.7868556247768972e-04  3.0387661896550978e-04  3.1061056938439072e-04  3.0292868025802878e-04  2.5836738938907514e-04  3.8565038673752517e-04  1.0423514218700148e-04  1.0424734552796366e-04  9.7174439911639236e-05  4.3829975123717334e-04  1.6661241703453474e-04  4.2717323029726925e-04  3.3627008386399355e-04  3.2796220459928413e-04  7.1908508285540925e-05  4.5630350746515479e-05  1.9063001604795600e-04  3.0954974199075210e-04  7.2021296829129181e-05  2.6986978808068892e-04  1.1815608188789855e-04  9.8282546963259968e-05  1.1157497219085051e-04  1.6444750867736349e-04  1.8995191574547960e-05  3.2259699306770833e-04  1.7752129860024738e-04  2.3031628164193286e-04  2.4349062830238523e-04  1.9022324540476645e-05  4.5543634310877878e-05  8.5166809396253570e-05  1.7753443261121101e-04  2.3036205512530066e-04  4.6296999151760959e-04  -4.5650902094048571e-09  1.4455971569727219e-04  1.1816746785411395e-04  3.7547587473483356e-04  3.8856712286576903e-04  4.0220977786135692e-04  3.6221265646822466e-04  4.4242123812230163e-04  3.7528275898369621e-04  5.9634529086549605e-04  4.7361185728075509e-04  4.9787947531425151e-04  5.7958980218171269e-04  4.8945663290674046e-04  4.1554058207149853e-04  4.1939976252689741e-04  4.4656636675531489e-04  2.8548536382248940e-09  3.3589562771988991e-04  1.1815602650142701e-04  4.8273796250915507e-04  2.9625387124017106e-04  2.9635413675904964e-04  3.4901617426717215e-04  2.8303954514677745e-04  5.1522793204455063e-04  3.1484467967188783e-07  2.8321838614944663e-04  1.6328390013937313e-04  1.2475904144488740e-04  1.3136039319089354e-04  1.3795715526059490e-04  1.3136482703156804e-04  1.3793319081177642e-04  1.2476321376664597e-04  1.2503072972120099e-04  2.0409146667984431e-04  2.0390781635617556e-04  1.3800143457562498e-04  3.6450202380326584e-06  2.2995116699648288e-04  3.5585629935379039e-05  1.9402588479203159e-04  2.2974508078900938e-04  2.0545079066972523e-04  4.1970744378644418e-04  3.2213260143115990e-04  1.5335400478915794e-04  9.1645685474650668e-05  5.5479641452830402e-05  1.2579111575441365e-05  2.1655889468540158e-04  6.9172962475562758e-05  1.5439221258341715e-04  4.4028363192433054e-04  4.2879976167831157e-04  2.7856844499808713e-04  2.7032379108641094e-04  3.6028692825191390e-05  4.5369407948835897e-04  4.3225650756220619e-05  4.8416785585045824e-04  4.4163355629022166e-04  2.9367499216870939e-04  1.4749419309841131e-04  7.9093184122696402e-05  1.5897146705775846e-04  1.0991343901098395e-04  2.4158840331396764e-05  3.4366790528952501e-04  1.7905633747949251e-04  4.2384760267476652e-04  4.6716793077045203e-04  3.7435553678140512e-04  5.7210371883481138e-05  5.3530115212246499e-05  2.3881502715173713e-04  4.2128702252927782e-04  4.1417069586310444e-04  4.2455668846616237e-04  1.9038812276779132e-04  2.6302757051990377e-04  1.2433402239340290e-05  2.8318386889496949e-04  3.1651178956287017e-04  1.1224654488435767e-04  1.5275809004247488e-04  3.3437006562034771e-04  5.4731448873966840e-05  3.5579944723582136e-04  1.9539259504344997e-04  1.9403285204325072e-04  3.5700267400065198e-04  6.4988273260404100e-05  3.9051492015438976e-04  2.0208367536833112e-04  2.4693970063420165e-04  3.8637881411302980e-04  2.5344169974912370e-05  4.5452020258929081e-05  1.9900848462430067e-05  3.4358016629942243e-04  3.4543478195917567e-04  4.0967090383241532e-04  5.2494988711532177e-04  8.8888963945227574e-05  6.6060031760447043e-05  2.4095800911222445e-04  4.1452821795106876e-04  2.6835170969260525e-04  4.5702632621674873e-04  2.6960880596024864e-04  1.7114007130943911e-04  3.1019261152636897e-04  2.9067286341782623e-04  3.6206121024884644e-04  1.3728742111690040e-05  2.2628450144233131e-04  4.1867360133420051e-05  2.0829079418988188e-04  3.7178767845936491e-04  5.0394526326508096e-04  2.4677508066669736e-04  6.2008263472961798e-05  3.1914716774314602e-04  3.4882504249346023e-05  1.8283400990818849e-04  4.0678101248705609e-04  4.3330843753266345e-04  1.1980530407084663e-05  5.4948364245462951e-06  1.8082438724448344e-04  2.7768006940285145e-04  1.6551744850041962e-04  1.7665971960691588e-04  2.4022387531926455e-04  8.1657900811327015e-05  3.3757151691934527e-04  3.7602073373460164e-04  4.5549849878175655e-04  4.4754589009383559e-04  4.5728845253348408e-04  3.8123402634216141e-04  1.0164306541082415e-04  4.2015984425130089e-04  3.9846359573923935e-04  4.0605706029742523e-04  4.0194372610392198e-04  5.6268979462440093e-05  4.6981981209644950e-05  2.4601132402740753e-04  1.8722934485295532e-04  1.7105288154587914e-04  2.7932134343445076e-04  2.5666906637214688e-04  1.7424084914738840e-04  2.3684752861406343e-04  2.3648822514889291e-04  4.6347192421547934e-04  3.6576466885008017e-04  2.5817311866484395e-04  7.0782468898624275e-05  3.0944748971698557e-04  2.9903633919190398e-04  2.4963705054367551e-04  2.9434002454263022e-04  3.4573289446347482e-04  4.4704275473652039e-04  4.3100875821097825e-04  2.7321853567777724e-04  4.6588935647503567e-04  2.8732448398932549e-04  2.8637670708584259e-04  4.5222206997481566e-04  4.4846792974340691e-04  4.4740977044952103e-04  2.0808432162849826e-04  2.0944869575940893e-04  3.5385830880309364e-04  2.8187231102073246e-04  2.2118681666897521e-04  4.6104994238179683e-04  4.4433491004852997e-04  2.5757008073152416e-04  3.9850429457995694e-04  4.3250901931068605e-04  4.3283071167202615e-04  3.2280956102148309e-05  1.8216890819031784e-04  3.2720218715641972e-04  1.7541039182981279e-05  2.2394203091688770e-05  1.5672195015886444e-05  2.1628443404128468e-04  2.1115450797308915e-04  2.0770752420023791e-04  1.8141778403258065e-04  8.7698149763346946e-05  8.8465724258234902e-05  4.2966528530348735e-04  1.8419186557608650e-04  3.6982111102440912e-04  3.6135180203809402e-04  1.9101192907365491e-04  4.2256566421338012e-05  5.0299278436185126e-05  4.9872601447149544e-05  4.4783968298692511e-05  3.5891773449498821e-04  3.6693712711349119e-04  3.6549966939896592e-04  2.4666598028367397e-04  1.0964736129586252e-04  1.2806181531596153e-04  1.1352573632001037e-04  3.9656852115621381e-04  8.8467431083066465e-05  1.0660527849079607e-04  1.4788210013322461e-04  9.3408072277777063e-05  8.6813471098695139e-05  1.6603322313206231e-04  4.1151050859245989e-04  3.9194157442669770e-04  1.4123880578670279e-04  4.0566559044334340e-04  9.6709045116696402e-05  1.0000687390683618e-04  1.0330421262689004e-04  1.4293378139824665e-04  1.3796573234134906e-04  1.3275092963009372e-04  1.2337210510086032e-04  1.3667143244618801e-04  1.2978842533365289e-04  3.0359137082856831e-05  4.3640472857331455e-06  1.9873745138572683e-04  1.5448058161902822e-04  3.6774768768836449e-05  2.3053858031546207e-04  2.9766284416395269e-04  2.8886774928550392e-04  3.9319785576262051e-04  2.9885649521917937e-04  3.3306667160597675e-04  3.4723003883293575e-04  2.6372396275890048e-04  4.0338190713501865e-04  3.8341139548245631e-04  3.2692723389365781e-05  8.1876744268181712e-05  3.2132252353430502e-04  3.1630384050721600e-04  2.7980288220516455e-04  1.4078670694245010e-05  8.9077382779534246e-06  3.7500954849584064e-06  2.0945950929730550e-04  3.8835776765075089e-04  2.2663336856732321e-04  2.3374665185036913e-04  2.3204626060599584e-04  4.7216603952018472e-05  2.6602888788728059e-04  2.2153228849066208e-04  2.3506859512492144e-04  1.9922108806118001e-04  3.5243571194166060e-06  2.9385921265620216e-04  2.9959054136815421e-04  3.0284355376499394e-04  4.7174052032642090e-04  4.3297662178345779e-04  1.5446067212979166e-04  1.4938565758229028e-04  3.7221696007557579e-05  3.6217175325123824e-04  2.6784918771517133e-04  3.5784769230527464e-04  2.4100662733728542e-05  4.5569343746151701e-04  3.3916437984706497e-04  3.1946728943254351e-04  1.8923434178643234e-04  4.5421700391195700e-04  2.1858024070953253e-04  2.1569915517004543e-04  2.1234540188578489e-04  3.9710135744610848e-04  3.8524546902992410e-04  4.5859079454904129e-04  3.4803468456149261e-04  3.8101660670926396e-04  2.9299642784267693e-04  1.9884993506987813e-04  4.2247421194357655e-05  1.6963393251777812e-04  2.0393368396239762e-05  3.4876829230825438e-04  4.4952023193241090e-04  4.5986372445456901e-04  4.3740587419930168e-04  1.0990513667015269e-04  4.6190732196931824e-04  4.4534074427506954e-04  4.3191205839432698e-04  4.2903367909743816e-04  4.7085805177854683e-04  4.3346125270620297e-04  4.6824051467731301e-04  3.2919803778700920e-04  8.1139057448984870e-05  3.7179088827222985e-04  6.5863602757733960e-05  4.7035808764561422e-04  3.5801620328563242e-04  3.5371695172836334e-04  2.2712862820130383e-04  3.2623736984731402e-04  3.2546916463052942e-04  3.1936660539909936e-04  5.2101159458302195e-05  2.7889604962975856e-05  3.4837268016272801e-04  5.0346992732071526e-06  1.0086250390840567e-05  1.1404556017851992e-05  2.4017851092351822e-04  2.4013158016104945e-04  4.8414525819092177e-04  2.5899380811580746e-04  3.9922476583896912e-04  2.3645328048883392e-04  3.7104570434618969e-04  3.7880537369896453e-04  5.8651572585470572e-05  5.5461685040758348e-05  4.6738777205489353e-04  3.0412717130210023e-04  3.8753411305409016e-04  2.0513363557884542e-04  1.7284903332946843e-04  1.7960875155653973e-04  1.5405933853964416e-05  1.4837082321237876e-04  2.2553386534799336e-04  2.2700428492835806e-04  1.8914028297777939e-04  2.2374196594244569e-05  2.9469917333375609e-04  4.0639818119746890e-04  3.5296609683983657e-04  2.8640811568854949e-04  2.6661596818589246e-04  2.7278721121332122e-04  4.2567404224118355e-04  4.2864070214119289e-04  4.3680768658712759e-04  1.6715241460471490e-04  1.615