<?xml version="1.0"?>
<VTKFile type="UnstructuredGrid"  version="0.1"  >
<UnstructuredGrid>
<Piece  NumberOfPoints="1079" NumberOfCells="1944">
<Points>
<DataArray  type="Float64"  NumberOfComponents="3"  format="ascii">0.08500000000000001 0.02 0  0.005 0.02 0  0.005 0.03 0  0 0.03 0  0 0 0  0.005 0 0  0.005 0.01 0  0.08500000000000001 0.01 0  0 0.015 0  0 0.0075 0  0 0.0225 0  0.04500000000000001 0.02 0  0.04500000000000001 0.01 0  0.025 0.01 0  0.025 0.02 0  0.065 0.02 0  0.065 0.01 0  0.035 0.02 0  0.035 0.01 0  0.07500000000000001 0.02 0  0.07500000000000001 0.01 0  0.015 0.02 0  0.015 0.01 0  0.05500000000000001 0.01 0  0.05500000000000001 0.02 0  0.07000000000000001 0.01 0  0.07000000000000001 0.02 0  0.05 0.01 0  0.03 0.01 0  0.03 0.02 0  0.04000000000000001 0.01 0  0.01 0.01 0  0.02 0.02 0  0.06 0.015 0  0.08500000000000001 0.015 0  0.05 0.02 0  0.07250000000000001 0.015 0  0.04000000000000001 0.02 0  0.03750000000000001 0.015 0  0.0525 0.015 0  0.02 0.01 0  0.01 0.02 0  0.0275 0.015 0  0.0125 0.015 0  0.08000000000000002 0.01 0  0.08000000000000002 0.02 0  0.0325 0.014375 0  0.04291666666666667 0.015 0  0.065 0.015 0  0.005 0.005 0  0.005 0.015 0  0.02208333333333334 0.015 0  0.07791666666666668 0.015 0  0.005 0.025 0  0.06 0.01 0  0.06 0.02 0  0.01729166666666667 0.01572916666666667 0  0.04770833333333334 0.01427083333333334 0  0.06875000000000001 0.01625 0  0.008750000000000001 0.01625 0  0.05625000000000001 0.01625 0  0 0.00375 0  0 0.01875 0  0 0.01125 0  0 0.02625 0  0.08145833333333334 0.01354166666666667 0  0.0675 0.01 0  0.0075 0.0125 0  0.0625 0.0175 0  0.0575 0.0125 0  0.0625 0.0125 0  0.08207465277777778 0.01707465277777778 0  0.06767857142857144 0.01321428571428571 0  0.0175 0.01 0  0.01875 0.01291382575757576 0  0.0475 0.02 0  0.04564168086314595 0.01679860519591141 0  0.00296875 0.0125 0  0.0025 0.03 0  0.0025 0 0  0.00296875 0.0175 0  0.01521990740740741 0.0132349537037037 0  0.0497800925925926 0.0167650462962963 0  0.0325 0.02 0  0.03474264705882353 0.01674632352941176 0  0.03750000000000001 0.02 0  0.03025735294117647 0.01674632352941176 0  0.0275 0.02 0  0.0525 0.02 0  0.0125 0.01 0  0.04020833333333334 0.01322916666666667 0  0.03750000000000001 0.01 0  0.0225 0.02 0  0.02479166666666667 0.01677083333333333 0  0.07520833333333335 0.01322916666666667 0  0.07250000000000001 0.01 0  0.07520833333333335 0.01677083333333334 0  0.07250000000000001 0.02 0  0.04020833333333334 0.01677083333333333 0  0.0225 0.01 0  0.02375 0.01262152777777778 0  0.04250000000000001 0.02 0  0.04250000000000001 0.01 0  0.07750000000000001 0.01 0  0.07750000000000001 0.02 0  0.05036151960784314 0.01294424019607843 0  0.0705560064935065 0.01284699675324675 0  0.05458333333333334 0.01291666666666666 0  0.0021875 0.024375 0  0.005 0.0275 0  0.01125 0.0175 0  0.01463848039215686 0.01705575980392157 0  0.01 0.01375 0  0.03625 0.0125 0  0.0021875 0.009375 0  0.05375000000000001 0.0175 0  0.07125000000000001 0.0175 0  0.005 0.0025 0  0.0021875 0.005625 0  0.02655220103578155 0.01234889948210923 0  0.002187499999999999 0.020625 0  0.02979166666666667 0.01302083333333333 0  0.0525 0.01 0  0.07895833333333334 0.0125 0  0.01994277885235332 0.01704213007736944 0  0.07934656179076068 0.01733823814273861 0  0.04505722114764669 0.01295786992263056 0  0.06625 0.0175 0  0.006250000000000001 0.0175 0  0.05750000000000001 0.02 0  0.05875000000000001 0.0175 0  0.005 0.0225 0  0.005 0.0075 0  0.002375 0.027375 0  0.002375 0.002625000000000001 0  0.0475 0.01 0  0.0175 0.02 0  0.0325 0.01 0  0.03375 0.0121875 0  0.04261299435028249 0.01749205508474576 0  0.08500000000000001 0.0125 0  0.08250000000000002 0.01 0  0.02121963399965531 0.01224824108143494 0  0.0675 0.02 0  0.0125 0.02 0  0.02720152243589744 0.0175 0  0.03715165441176471 0.0175 0  0.08500000000000001 0.0175 0  0.0275 0.01 0  0.0025 0.0149560546875 0  0.0075 0.01 0  0.0075 0.02 0  0.06526785714285716 0.0125 0  0.01281031447005516 0.0125 0  0.0625 0.015 0  0.06 0.0125 0  0.05750000000000001 0.01 0  0.0625 0.02 0  0.0625 0.01 0  0.08250000000000002 0.02 0  0.04260103740101855 0.01252623201412851 0  0.02240052247582197 0.01750164767101344 0  0.07293583459427785 0.01238479732953041 0  0.005234374999999999 0.012265625 0  0.03528131980640358 0.01454684009679821 0  0.0325 0.01760027210036557 0  0.02532593822924343 0.01428227733767297 0  0.08009952069819683 0.01527145502895417 0  0.01987282359856536 0.01482587683689801 0  0.04828232595121382 0.01210233572595705 0  0.01671767404878618 0.01789766427404295 0  0.05125 0.01829007549029352 0  0.05247215456215357 0.01288882122882024 0  0.07338729919678716 0.01799385040160642 0  0.03838729919678716 0.01200614959839357 0  0.07717482110586968 0.01780301674207099 0  0.04771860040890012 0.01773306039388322 0  0.03125 0.01160380747126437 0  0.06875000000000001 0.01154265873015873 0  0.07625000000000001 0.01154065860215054 0  0.01625 0.01153997817696946 0  0.068125 0.018125 0  0.05437500000000001 0.015625 0  0.066875 0.015625 0  0.07039794950204951 0.01494384850614853 0  0.05687500000000001 0.018125 0  0.006875 0.015625 0  0.008749999999999999 0.01833333333333333 0  0.010625 0.015625 0  0.05625 0.01416666666666667 0  0.05812500000000001 0.015625 0  0.0449088595298192 0.01494528408816316 0  0 0.016875 0  0 0.013125 0  0.04962452342047931 0.01478673066448802 0  0.0153754765795207 0.01521326933551198 0  0.0771774565913315 0.01322498191305479 0  0.01857756431135545 0.01840228599899994 0  0.04642243568864456 0.01159771400100006 0  0.08125000000000002 0.01155637254901961 0  0.08317650804863432 0.0118234919513657 0  0.08288217288011697 0.01511353252923977 0  0.02837253504384828 0.0117177464035174 0  0.03896057962520807 0.01831163685754031 0  0.01125 0.0114244162490927 0  0.00935910490099115 0.0119067901980177 0  0.02946078431372549 0.01495404411764706 0  0.02875 0.0185829434466942 0  0.002968749999999999 0.0225 0  0.064375 0.016875 0  0.00296875 0.0075 0  0 0.001875 0  0 0.005625 0  0 0.009375 0  0 0.020625 0  0 0.024375 0  0 0.028125 0  0.06062500000000001 0.01812500000000001 0  0.008303571428571429 0.01446428571428572 0  0.01375 0.01865917058160413 0  0.05137790313978056 0.01143372888932909 0  0.04125000000000001 0.01131513063942604 0  0.04101690263896279 0.01844430285842771 0  0.02399563533148224 0.01844349395710867 0  0.08125000000000002 0.01868815426145731 0  0.05354684380692146 0.01145463537600848 0  0.01699195823639423 0.01315138909884649 0  0.07598357371794873 0.015 0  0.04098357371794872 0.015 0  0.003744047619047619 0.00375 0  0.003344630281690141 0.02580853873239437 0  0.04625 0.0187354532243972 0  0.06388392857142858 0.01138392857142858 0  0.06375 0.01375 0  0.05875 0.01375 0  0.06375 0.02 0  0.00622802734375 0.01372802734375 0  0.003630681818181818 0.001369318181818182 0  0.003630681818181818 0.02863068181818182 0  0.06125 0.01625 0  0.06125 0.01125 0  0.05625000000000001 0.01 0  0.05875 0.01125 0  0.06125 0.01375 0  0.08337864763241221 0.0183786476324122 0  0.05213634138653413 0.01674432930673294 0  0.04375000000000001 0.01 0  0.07424178685897437 0.01529258578431373 0  0.03924178685897436 0.01529258578431372 0  0.03410139294454583 0.01843406022904556 0  0.03089860705545417 0.01843406022904556 0  0.02094160484316717 0.01850229584291991 0  0.04375000000000001 0.02 0  0.04437042160883325 0.01820701498672512 0  0.04816311705429156 0.01600061344661149 0  0.07151224904251052 0.0114127410511319 0  0.04395528506193162 0.01639387970349481 0  0.0128750358694518 0.0167500179347259 0  0.02855808448399799 0.01642839899839741 0  0.02812690373330794 0.01340955081400569 0  0.08358500641945087 0.01351822349116885 0  0.05590277777777778 0.01173611111111111 0  0.06683110430364615 0.01164926404662283 0  0.02573206694914602 0.01842532451809762 0  0.01438126661842046 0.01166701193099454 0  0.02384283211216029 0.01526549696571563 0  0.03625 0.02 0  0.004609375000000001 0.0182421875 0  0.003398437500000001 0.01943359375 0  0.001728307845744682 0.01894718251329787 0  0.004377805359085963 0.01656966216675735 0  0.04649673309852075 0.0153889662370871 0  0.03615513600614297 0.01592654988586041 0  0.03316985071935832 0.01598763605018279 0  0.03110111603888768 0.01529816275177977 0  0.01370614113484869 0.0138804542047638 0  0.04930041102671841 0.01842260568883502 0  0.07875000000000001 0.02 0  0.0745395359848485 0.01165101111925709 0  0.03860755698543604 0.01373741558556884 0  0.02605038706571737 0.01573944002207753 0  0.07559826163500957 0.01841729376139847 0  0.04437500000000001 0.01149157931286774 0  0.06874116707361365 0.01454618473032123 0  0.003761917372881356 0.0239307468220339 0  0.003984374999999999 0.01125 0  0.003768503289473684 0.01392539576480263 0  0.001796875 0.0111328125 0  0.003761917372881356 0.008930746822033899 0  0.005 0.00625 0  0.003761917372881355 0.0210692531779661 0  0.06633928571428571 0.01410714285714285 0  0.006484375 0.01125 0  0.08364120589325512 0.01657288979763549 0  0.03576267476503373 0.0184116442851204 0  0.07370875846579374 0.0137848203678562 0  0.06964285714285715 0.01758928571428571 0  0.05520833333333334 0.01833333333333333 0  0.06491071428571429 0.01839285714285714 0  0.0510098951944636 0.01559941474766356 0  0.01786087179886325 0.0115702210443714 0  0.01972197383235524 0.01160576093166696 0  0.01804697593127788 0.01433503795474974 0  0.001644074528704677 0.01642892723865279 0  0.00125 0.03 0  0.001497685185185185 0.001267746913580247 0  0.07315451164202422 0.01643443118912983 0  0.001233906745910645 0.0140625 0  0.01162635071030191 0.01362229857939618 0  0.01528023503083844 0.01845923557506155 0  0.06625 0.02 0  0.07695012019230771 0.01624387078484555 0  0.03139091092855769 0.01320776147621796 0  0.03857339107781042 0.01675295051810485 0  0.001754993120977522 0.02590789105493891 0  0.002288757784711197 0.00412546923654445 0  0.07914382119690884 0.01404430049871201 0  0.001391810103286306 0.01257390899021902 0  0.0419501201923077 0.01614675005432421 0  0.001484375 0.007018229166666667 0  0.001484375 0.02201822916666666 0  0.048
[...]
<PointData  Scalars="pressure"> 
<DataArray  type="Float64"  Name="pressure"  format="ascii">-2.8254597520278246e-06  7.1995783973454884e-04  4.6012024165264126e-04  2.2473082573278672e-04  2.6061015655068245e-04  1.0558335588439923e-04  7.1618133545915739e-04  -2.7187818952703291e-06  7.1616285870606860e-04  7.5048594789494120e-04  7.5946975086739563e-04  3.5150256863024202e-04  3.5153615588535405e-04  5.2768608243119000e-04  5.2768193597063574e-04  1.7515786085777843e-04  1.7525353925080278e-04  4.3957717341813328e-04  4.3952585999469895e-04  8.6902391773459786e-05  8.7180083882254985e-05  6.1584974018368086e-04  6.1561470209497244e-04  2.6305469302584996e-04  2.6325850557499218e-04  1.3119569617665375e-04  1.3119214641526527e-04  3.0746427046261717e-04  4.8358610526571464e-04  4.8361009378040460e-04  3.9558088842054837e-04  6.5975088794635671e-04  5.7167809890668986e-04  2.1928106572902475e-04  -4.5544845885988669e-21  3.0735559320311140e-04  1.0910501176206336e-04  3.9572345844225769e-04  4.1752962098825857e-04  2.8535494903718367e-04  5.7165801054021503e-04  6.6049308169599129e-04  5.0560553594709194e-04  6.3767255903527905e-04  4.2974592564292961e-05  4.2631708739566180e-05  4.6157039389045960e-04  3.6979943272467340e-04  1.7520239732338771e-04  7.7589910157562761e-04  6.9978206122885307e-04  5.5330695422379107e-04  6.1377360354751713e-05  7.8869081595408987e-04  2.1922656109421364e-04  2.1905574546522916e-04  5.9549649797756450e-04  3.2756713240387564e-04  1.4216155395719340e-04  6.7062116946330530e-04  2.5233573233657123e-04  7.7353678683010456e-04  7.2858792021217550e-04  7.2487955577223455e-04  7.8601480277810411e-04  3.0273341132982786e-05  1.5314694291505840e-04  6.8146165495893893e-04  1.9722934716472404e-04  2.4131039203599780e-04  1.9723134911191391e-04  2.4827807209335450e-05  1.5159767630862207e-04  5.9365572882473289e-04  5.8265172831864303e-04  3.2907547502818044e-04  3.4578239630418222e-04  7.1433531959404412e-04  1.0711289296730601e-03  1.0549100002683182e-03  7.1629411465565240e-04  6.1371323375154026e-04  3.0930072103315547e-04  4.6140905337973480e-04  4.4182220676428378e-04  4.1741276149271750e-04  4.8132482448081363e-04  5.0553978835365682e-04  2.8537068579180850e-04  6.3773761961296400e-04  3.9366959710598182e-04  4.1762329661249818e-04  5.4957850170142184e-04  5.2945600420238723e-04  8.5237522554462141e-05  1.0911234680224508e-04  8.5227126462615962e-05  1.0881925889122905e-04  3.9368018173630074e-04  5.4965705768710569e-04  5.3864270707196433e-04  3.7344728188449611e-04  3.7364173492288939e-04  6.5479882049150774e-05  6.5122201341339682e-05  3.0419710935973299e-04  1.2625375643814430e-04  2.6700587568378472e-04  7.7766219709179713e-04  8.2527736776537850e-04  6.4882134183203420e-04  6.1890080044108454e-04  6.5953208437290688e-04  4.2851914606715678e-04  7.3521901868354826e-04  2.7435617408446073e-04  1.2011935854503879e-04  8.0543808490583313e-04  7.6671254786337274e-04  5.1396196638830972e-04  7.4115710455220727e-04  4.8541770007656961e-04  2.8518127844911172e-04  5.2141312926401196e-05  5.7215063131207326e-04  4.8745725701029219e-05  3.5092899406442374e-04  1.6419420011188515e-04  6.9332554686982629e-04  2.4156614435139992e-04  2.3032226763794648e-04  7.5916040574396625e-04  7.5043805791471163e-04  8.1709629814861930e-04  7.9831787739082340e-04  3.2940884202504989e-04  5.9330174627372637e-04  4.6156623406542379e-04  4.5058036091868259e-04  3.7247928357062894e-04  -8.4634589503745060e-08  2.0973236231917238e-05  5.6091829991869512e-04  1.5301055081191084e-04  6.3790603823871822e-04  5.0823530466948799e-04  4.2060926311364341e-04  -7.7624680925359817e-08  5.0533179695492190e-04  7.1243717303215708e-04  6.8233619231685414e-04  6.8328483192449027e-04  1.7283675960227740e-04  6.3490347665644687e-04  1.9723907214891714e-04  2.1928342300230334e-04  2.4130296074793484e-04  1.9711179630166345e-04  1.9684520124125672e-04  2.1062828461530036e-05  3.7258657712892999e-04  5.5051029122506689e-04  1.0526822320002595e-04  7.0111337887224570e-04  4.3707172491070165e-04  4.6156591735286483e-04  5.2475555026004338e-04  4.2198582265923937e-05  5.7276837822154943e-04  3.2250979076323024e-04  6.0056238429156473e-04  2.9635432553418720e-04  2.8559701502860044e-04  1.0125987064890926e-04  4.0970399560666301e-04  6.7902337720564813e-05  3.2743293446407562e-04  4.7256130248561715e-04  1.4216464974272581e-04  7.6054955025603468e-05  6.0464092420844170e-04  1.4767300020134371e-04  2.6884410675529738e-04  1.5868179871387331e-04  1.2763632454142098e-04  2.4687302640985813e-04  6.8617567943985846e-04  6.7129848821429741e-04  6.5416396773743438e-04  2.5232630258337473e-04  2.3581175697716939e-04  3.5223953980413391e-04  7.1960245431303398e-04  7.1798893252686521e-04  3.1068257742183995e-04  6.1237150681817706e-04  6.7881076189019973e-05  5.8414749493180152e-04  3.3889241839683154e-04  3.1880186117977475e-05  1.4901816278116786e-05  1.8025284830754781e-05  4.9790164011337759e-04  4.0468350334106601e-04  6.4863791512861924e-04  6.6525115982839830e-04  4.8833596852765771e-04  4.9458333972974883e-04  7.5913735202881604e-04  1.8070725807013490e-04  7.5065994082234525e-04  7.7131451851281672e-04  7.6488863841224736e-04  7.3665984561378632e-04  7.4261469575678232e-04  7.7533694796725477e-04  7.7808911583456182e-04  2.1377021548272016e-04  6.7413218586742250e-04  6.2679490050324919e-04  2.9523052184326918e-04  3.8450123362611101e-04  3.8656870337445243e-04  5.3644904836887123e-04  3.1837825596516445e-05  2.7614815512821684e-04  5.9812266127264523e-04  7.8403638982667154e-05  3.8683910818962109e-04  7.8957684144746916e-04  7.9755745597578866e-04  3.4040335924377907e-04  1.8502713685109951e-04  1.8621685396752509e-04  2.3029655221837287e-04  1.8605684705802977e-04  6.9122752985598785e-04  8.5480493180493228e-04  8.7170485528252867e-04  2.0826110145609556e-04  2.0824764287052656e-04  2.5242046882727827e-04  2.3029148805447927e-04  2.0826097145650415e-04  1.2929835755645055e-05  2.8855717412589854e-04  3.6226130607588849e-04  9.3750973301016472e-05  4.0218772178439438e-04  4.4745780146033225e-04  4.7570609961485315e-04  5.6336338906834340e-04  3.6234460977495634e-04  3.5699687235746019e-04  3.2355070491541963e-04  1.1782595955214402e-04  3.6064481631607168e-04  6.3444451632616505e-04  4.9628674054259532e-04  5.0008200492244234e-04  1.1912342735792630e-05  2.5537278378938042e-04  1.5904540126103248e-04  5.2119078048713015e-04  6.2106537942039372e-04  5.3781357763881845e-04  4.2876215737191233e-04  7.0980578817782117e-04  7.2657281743305666e-04  7.2859920579240365e-04  7.0586129259152990e-04  3.3824369608282713e-04  4.2938031599817081e-04  4.5567050045692583e-04  4.7389038466487263e-04  6.2704023096911031e-04  3.1350815068641917e-04  5.3970351075999062e-05  9.1125209257147789e-05  4.0776961795624742e-04  5.1837315556624232e-04  8.1775994606183474e-05  3.5694751453962356e-04  1.4223792352396913e-04  7.7507514683786919e-04  7.1459203847803717e-04  7.0732849253567177e-04  7.2408233269203128e-04  7.3637631073955210e-04  7.6265115409152170e-04  7.4275444900924665e-04  1.6339917182570462e-04  6.9187225075266750e-04  1.1417100300342822e-05  4.3287025683923501e-04  9.8452198546015537e-05  1.3429858499864892e-04  2.6150517666393862e-04  1.7597730307387452e-04  2.9847705479836551e-04  5.9048038437457091e-04  5.7409261958852947e-04  5.8884164951792620e-04  7.1710013027520873e-04  8.1331712011474674e-04  7.7809080855466132e-04  1.0332853908493976e-04  7.1568504012496951e-04  6.4531092807180567e-04  6.1324419603847591e-04  1.6435480969396199e-04  6.9884537276693496e-05  4.7133421405487112e-04  4.0808226539112752e-04  7.9099666106467053e-04  7.7960371934932622e-04  5.0574217481536043e-05  7.1857427350315516e-04  3.7832050208188922e-04  7.5461933294012783e-04  7.5470234471328092e-04  3.1657160390019046e-04  3.0981387227870563e-04  6.0650153990445563e-04  2.9465498739506056e-04  3.3723331230711766e-04  5.8583476365971319e-04  3.6128439146065596e-04  5.6372335656085302e-04  3.7831925314671432e-04  2.7642205644190564e-04  3.9682653415384168e-04  6.2537374456506382e-04  5.6227349971654198e-04  5.5070739840412555e-04  5.2704598964579388e-04  5.3867786619854116e-04  5.1675236627576632e-04  5.4863654630528012e-04  1.3901808688897245e-04  1.1813857391737230e-04  6.2475338596604883e-05  7.6774621483683889e-04  7.6869198128526133e-04  7.4337770825934509e-04  4.8531467912393903e-04  7.9493723875758218e-04  5.1271582773908904e-04  4.4039919211009195e-04  1.2665656161528073e-04  1.5317737743771178e-04  2.6334546922422713e-04  1.5868115995881855e-04  1.1247938544588923e-04  6.6173858408696666e-04  4.3862833576413144e-04  4.2827005466331334e-04  4.2089875718234044e-04  6.8019767356778673e-04  6.9516490679800784e-04  2.2112014868960644e-04  1.6969633403675688e-04  2.3582066098487418e-04  2.8356675086782729e-04  4.2573101060728561e-04  6.4882768045915857e-04  1.9173979562888617e-04  6.5696699007833381e-04  6.3973280145344436e-04  6.8624210317444403e-04  1.1861584249987790e-04  2.4133101888023417e-04  2.9788716212884498e-05  4.4947996452194042e-04  6.7059062742841965e-04  1.3004791629830692e-04  2.6455171847996923e-04  3.6562655536171739e-05  4.8452067013972567e-05  5.2718383124148955e-05  7.7114519180163468e-04  2.7436459893332023e-04  3.9816237364038241e-05  5.3588586778036868e-05  4.4763607027417845e-05  6.0453157693155987e-04  3.1838245272788239e-04  7.2328755929845670e-04  4.6700171938319476e-04  1.3030142579197612e-04  6.9599506376792294e-04  6.7066130420198676e-04  6.7636558006506082e-04  5.4147968985338620e-04  5.8265592358936749e-04  5.2448580487481642e-04  2.5241400383777592e-04  1.8621816711809062e-04  1.4233342288499969e-04  2.0833349339426978e-04  5.4103763123066937e-04  3.3389955012267487e-04  6.5497344975746325e-04  4.1768128774185523e-04  7.8046726788713486e-04  7.7780357011104982e-04  8.2565078602965340e-04  9.7915381463449655e-05  6.0552655035043721e-04  4.7930307349246308e-04  7.2526701497523159e-04  6.6461690427783288e-04  3.6796945456199151e-04  5.6064511650740520e-04  7.1166291068634117e-04  4.1780279564214459e-07  5.7525024716042010e-06  2.0314742223987944e-04  2.2441249180568009e-04  9.8147109654707874e-05  4.0646856811426754e-04  1.3804327943802246e-04  4.5960259390428874e-04  4.6052851731200143e-04  4.5079498775262039e-04  5.7108757539051330e-04  5.8393674587197254e-04  2.4157473904218058e-04  5.0835110944432121e-04  3.6868668075974248e-04  4.2187728198081817e-04  4.1834530574474976e-04  5.5303398054686232e-04  1.0151047457770909e-04  6.3214042901579370e-04  5.0726166417028166e-04  5.1850265718210171e-04  5.0567926712302529e-04  4.3129304012543690e-04  6.4376668964861452e-04  1.7399984972058311e-04  1.7402022214064176e-04  1.6221341043371086e-04  7.3165736321832416e-04  2.7812632885463760e-04  7.1308165215237232e-04  5.6133611939822043e-04  5.4746776345535877e-04  1.2003695314597297e-04  7.6170788236764201e-05  3.1821894530239842e-04  5.1673181398129554e-04  1.2022523229440410e-04  4.5049401342496694e-04  1.9723809617641370e-04  1.6406317326721719e-04  1.8625224347645604e-04  2.7451244764325783e-04  3.1708677941420038e-05  5.3851161056302417e-04  2.9633653990284890e-04  3.8446728553190676e-04  4.0645924430919545e-04  3.1753967410654222e-05  7.6026032219460912e-05  1.4216905602000790e-04  2.9635846612541158e-04  3.8454369394894523e-04  7.7282972969750581e-04  -7.6203014130200494e-09  2.4131372051967168e-04  1.9725710128657830e-04  6.2678233575677654e-04  6.4863581520133878e-04  6.7140895939241194e-04  6.0464213005234245e-04  7.3853779562196398e-04  6.2646011013285045e-04  9.9527932597283028e-04  7.9060395647251867e-04  8.3109957091384871e-04  9.6739021130698281e-04  8.1703114514895011e-04  6.9366324796890438e-04  7.0010353679102080e-04  7.4544986806014777e-04  4.7654721421408246e-09  5.6071103616191480e-04  1.9723800368624922e-04  8.0582133664097299e-04  4.9453700030851946e-04  4.9470437546379829e-04  5.8261317836238655e-04  4.7247830569371928e-04  8.6002648896018859e-04  5.2557124284142174e-07  4.7277684359479379e-04  2.7257002953184407e-04  2.0826042632749155e-04  2.1928007268989095e-04  2.3029205768952985e-04  2.1928747537242131e-04  2.3025205350773442e-04  2.0826739113066273e-04  2.0871395478365125e-04  3.4069016002103401e-04  3.4038359355779334e-04  2.3036596711867037e-04  6.0845685968271177e-06  3.8385779790674765e-04  5.9403118600781147e-05  3.2388767141016588e-04  3.8351377741728331e-04  3.4295928303806639e-04  7.0061881566173387e-04  5.3773640449109766e-04  2.5599404140405467e-04  1.5298425246547569e-04  9.2612220503337771e-05  2.0998309688095417e-05  3.6150205754879465e-04  1.1547050225269522e-04  2.5772712327427010e-04  7.3496358508992740e-04  7.1579606182383955e-04  4.6501468981021126e-04  4.5125187927436047e-04  6.0142722626221090e-05  7.5735688453535007e-04  7.2156616416139477e-05  8.0822187007619515e-04  7.3721679102118970e-04  4.9023207366806780e-04  2.4621224899137910e-04  1.3203034331188876e-04  2.6537127772663539e-04  1.8347864056302666e-04  4.0328364489302161e-05  5.7368530979142894e-04  2.9889898374720032e-04  7.0752946916802987e-04  7.7983990590092291e-04  6.2491227263097079e-04  9.5501332323525705e-05  8.9357874503523963e-05  3.9865425268169531e-04  7.0325617941789068e-04  6.9137636742103192e-04  7.0871424221356186e-04  3.1781514957695335e-04  4.3907228734903073e-04  2.0755080509431204e-05  4.7271922578197008e-04  5.2835357317350807e-04  1.8737329720752583e-04  2.5499928061007240e-04  5.5816442471776691e-04  9.1363263087424526e-05  5.9393649715814222e-04  3.2616912228638128e-04  3.2389930116606550e-04  5.9594505335019510e-04  1.0848499453399494e-04  6.5188714287805290e-04  3.3733855189860935e-04  4.1221678281960788e-04  6.4498280952072964e-04  4.2307036330015744e-05  7.5873098752973379e-05  3.3220494835830457e-05  5.7353885203684576e-04  5.7663477192151393e-04  6.8386435306029059e-04  8.7626665436965167e-04  1.4838245309201073e-04  1.1027408287121385e-04  4.0223153586280873e-04  6.9197263461834486e-04  4.4795988025342516e-04  7.6292136858893700e-04  4.5005835341916137e-04  2.8568434902687172e-04  5.1780495979692636e-04  4.8522061611846979e-04  6.0438925808564909e-04  2.2917383561308031e-05  3.7773702789774933e-04  6.9889220369519421e-05  3.4770010493545496e-04  6.2062570273648215e-04  8.4122480271517732e-04  4.1194198157208000e-04  1.0351046266170340e-04  5.3275281518712424e-04  5.8229389866415675e-05  3.0520505801405132e-04  6.7904037902454461e-04  7.2332474245813600e-04  1.9999101289703234e-05  9.1725310115937657e-06  3.0185039245504187e-04  4.6353172545752548e-04  2.7629849627719996e-04  2.9489830562209397e-04  4.0100604608088659e-04  1.3631162861531035e-04  5.6350860801321551e-04  6.2769188520353969e-04  7.6036957123221767e-04  7.4709342712235105e-04  7.6334752551066682e-04  6.3639453534432549e-04  1.6967289611421115e-04  7.0137272764286037e-04  6.6515553815693108e-04  6.7783112431772207e-04  6.7096496629279374e-04  9.3929864617991421e-05  7.8427064719072481e-05  4.1066704177365173e-04  3.1254219687159744e-04  2.8553880267175345e-04  4.6627150728682586e-04  4.2845802690192513e-04  2.9086048222673965e-04  3.9536990480478873e-04  3.9477011880260281e-04  7.7369576686963867e-04  6.1057144873562621e-04  4.3104025980324830e-04  1.1815725392021985e-04  5.1656112736556820e-04  4.9918177786502631e-04  4.1671947249575202e-04  4.9134221346122859e-04  5.7713239714784765e-04  7.4624569214223760e-04  7.1948541167363178e-04  4.5608408156015462e-04  7.7771543303291194e-04  4.7963116131567734e-04  4.7804903652214916e-04  7.5489026924551741e-04  7.4862425362603134e-04  7.4686585159503189e-04  3.4735543992328637e-04  3.4963299296712118e-04  5.9069615896872386e-04  4.7052984071926669e-04  3.6922745452850725e-04  7.6962565575661580e-04  7.4173273805276912e-04  4.2996209132251421e-04  6.6522408854848144e-04  7.2198651600932683e-04  7.2252321537550062e-04  5.3886621699730195e-05  3.0409480232472378e-04  5.4619906941678344e-04  2.9281258118738297e-05  3.7382646318657213e-05  2.6161584944931314e-05  3.6104389994384765e-04  3.5248050677184867e-04  3.4672645158822997e-04  3.0284094964963629e-04  1.4639462554519119e-04  1.4767593916575870e-04  7.1724052911999376e-04  3.0747172816686179e-04  6.1734288498074450e-04  6.0320507113612260e-04  3.1885647010175636e-04  7.0538925170147586e-05  8.3964633245513343e-05  8.3252381701783633e-05  7.4757918577281448e-05  5.9914190580374438e-04  6.1252869913423996e-04  6.1012915308165461e-04  4.1175986063667503e-04  1.8303447695995216e-04  2.1377375156261328e-04  1.8950865353984801e-04  6.6199230044891903e-04  1.4767879085265576e-04  1.7795632316503507e-04  2.4685978436665397e-04  1.5592620775880758e-04  1.4491782975312574e-04  2.7715947951371754e-04  6.8693473831483705e-04  6.5426851865654052e-04  2.3577012157631271e-04  6.7717808214944617e-04  1.6143652628525313e-04  1.6694159667794266e-04  1.7244584940416771e-04  2.3859954672433238e-04  2.3030637503957245e-04  2.2160129723781003e-04  2.0594521187259509e-04  2.2814579838309097e-04  2.1665598603844103e-04  5.0678527870693593e-05  7.2849041407123984e-06  3.3175269600325139e-04  2.5787463981439017e-04  6.1388150305626373e-05  3.8490147066801432e-04  4.9688900094687987e-04  4.8220733604694045e-04  6.5636595564373538e-04  4.9888156457494133e-04  5.5598865771955990e-04  5.7963158372354795e-04  4.4023477649559142e-04  6.7336632832150031e-04  6.4002929190125812e-04  5.4573984380337281e-05  1.3667694521170067e-04  5.3638413743795435e-04  5.2800644283519313e-04  4.6707534113626096e-04  2.3501519564407523e-05  1.4869647286288989e-05  6.2600351283139322e-06  3.4965104336418109e-04  6.4828601917241949e-04  3.7831939174084680e-04  3.9019360623417494e-04  3.8735514047111210e-04  7.8818720910122766e-05  4.4408239082095562e-04  3.6980415115220170e-04  3.9240032822923578e-04  3.3256003171611761e-04  5.8832008173218655e-06  4.9053959408267445e-04  5.0010691265836246e-04  5.0553716791856666e-04  7.8746812317873082e-04  7.2277044257856317e-04  2.5784140538153463e-04  2.4936967331028160e-04  6.2134206039252905e-05  6.0457384193411136e-04  4.4712102011497314e-04  5.9735566171951365e-04  4.0231244518647620e-05  7.6071058713029908e-04  5.6616758410952650e-04  5.3328719423165996e-04  3.1588914104090565e-04  7.5823119251130339e-04  3.6487629325785055e-04  3.6006689446181904e-04  3.5446846798285574e-04  6.6288204945658385e-04  6.4309094139801350e-04  7.6552045749530380e-04  5.8097479046330868e-04  6.3603147968444452e-04  4.8909934591355073e-04  3.3194046222220059e-04  7.0523656907720808e-05  2.8317014921099221e-04  3.4042657604208633e-05  5.8219941357194919e-04  7.5038110415842326e-04  7.6764672121243740e-04  7.3016504499425297e-04  1.8346478123909096e-04  7.7107153099690868e-04  7.4341211950602578e-04  7.2099309377805191e-04  7.1618717079326274e-04  7.8601156453486870e-04  7.2357611334898143e-04  7.8163170425197897e-04  5.4953074765814243e-04  1.3544552311490178e-04  6.2063100533934741e-04  1.0994618289946575e-04  7.8516192678881500e-04  5.9763697355276208e-04  5.9046021947602027e-04  3.7914612896793623e-04  5.4458850344736608e-04  5.4330613049645210e-04  5.3311912195485125e-04  8.6972516610065267e-05  4.6556133943275145e-05  5.8153901657854578e-04  8.4044207061257673e-06  1.6836974075950836e-05  1.9037591211090566e-05  4.0093031838657717e-04  4.0085197657388472e-04  8.0817268899289812e-04  4.3233872158022254e-04  6.6642655712561985e-04  3.9471178541434506e-04  6.1938706460575759e-04  6.3234025695403087e-04  9.7907130668905475e-05  9.2582249969016774e-05  7.8021560388896781e-04  5.0767991207491627e-04  6.4691123367659079e-04  3.4242985558020651e-04  2.8853712163424668e-04  2.9982112869558850e-04  2.5717130319841755e-05  2.4767560885821991e-04  3.7648398841077179e-04  3.7893856569643571e-04  3.1573212909804079e-04  3.7349251639817529e-05  4.9194174139916523e-04  6.7840084229116825e-04  5.8920681155772271e-04  4.7810146741477131e-04  4.4506240604117630e-04  4.5536406989804318e-04  7.1057668877161709e-04  7.1552920443260226e-04  7.2916644195457597e-04  2.7902774862973318e-04  2.696