<?xml version="1.0"?>
<VTKFile type="UnstructuredGrid"  version="0.1"  >
<UnstructuredGrid>
<Piece  NumberOfPoints="1079" NumberOfCells="1944">
<Points>
<DataArray  type="Float64"  NumberOfComponents="3"  format="ascii">0.08500000000000001 0.02 0  0.005 0.02 0  0.005 0.03 0  0 0.03 0  0 0 0  0.005 0 0  0.005 0.01 0  0.08500000000000001 0.01 0  0 0.015 0  0 0.0075 0  0 0.0225 0  0.04500000000000001 0.02 0  0.04500000000000001 0.01 0  0.025 0.01 0  0.025 0.02 0  0.065 0.02 0  0.065 0.01 0  0.035 0.02 0  0.035 0.01 0  0.07500000000000001 0.02 0  0.07500000000000001 0.01 0  0.015 0.02 0  0.015 0.01 0  0.05500000000000001 0.01 0  0.05500000000000001 0.02 0  0.07000000000000001 0.01 0  0.07000000000000001 0.02 0  0.05 0.01 0  0.03 0.01 0  0.03 0.02 0  0.04000000000000001 0.01 0  0.01 0.01 0  0.02 0.02 0  0.06 0.015 0  0.08500000000000001 0.015 0  0.05 0.02 0  0.07250000000000001 0.015 0  0.04000000000000001 0.02 0  0.03750000000000001 0.015 0  0.0525 0.015 0  0.02 0.01 0  0.01 0.02 0  0.0275 0.015 0  0.0125 0.015 0  0.08000000000000002 0.01 0  0.08000000000000002 0.02 0  0.0325 0.014375 0  0.04291666666666667 0.015 0  0.065 0.015 0  0.005 0.005 0  0.005 0.015 0  0.02208333333333334 0.015 0  0.07791666666666668 0.015 0  0.005 0.025 0  0.06 0.01 0  0.06 0.02 0  0.01729166666666667 0.01572916666666667 0  0.04770833333333334 0.01427083333333334 0  0.06875000000000001 0.01625 0  0.008750000000000001 0.01625 0  0.05625000000000001 0.01625 0  0 0.00375 0  0 0.01875 0  0 0.01125 0  0 0.02625 0  0.08145833333333334 0.01354166666666667 0  0.0675 0.01 0  0.0075 0.0125 0  0.0625 0.0175 0  0.0575 0.0125 0  0.0625 0.0125 0  0.08207465277777778 0.01707465277777778 0  0.06767857142857144 0.01321428571428571 0  0.0175 0.01 0  0.01875 0.01291382575757576 0  0.0475 0.02 0  0.04564168086314595 0.01679860519591141 0  0.00296875 0.0125 0  0.0025 0.03 0  0.0025 0 0  0.00296875 0.0175 0  0.01521990740740741 0.0132349537037037 0  0.0497800925925926 0.0167650462962963 0  0.0325 0.02 0  0.03474264705882353 0.01674632352941176 0  0.03750000000000001 0.02 0  0.03025735294117647 0.01674632352941176 0  0.0275 0.02 0  0.0525 0.02 0  0.0125 0.01 0  0.04020833333333334 0.01322916666666667 0  0.03750000000000001 0.01 0  0.0225 0.02 0  0.02479166666666667 0.01677083333333333 0  0.07520833333333335 0.01322916666666667 0  0.07250000000000001 0.01 0  0.07520833333333335 0.01677083333333334 0  0.07250000000000001 0.02 0  0.04020833333333334 0.01677083333333333 0  0.0225 0.01 0  0.02375 0.01262152777777778 0  0.04250000000000001 0.02 0  0.04250000000000001 0.01 0  0.07750000000000001 0.01 0  0.07750000000000001 0.02 0  0.05036151960784314 0.01294424019607843 0  0.0705560064935065 0.01284699675324675 0  0.05458333333333334 0.01291666666666666 0  0.0021875 0.024375 0  0.005 0.0275 0  0.01125 0.0175 0  0.01463848039215686 0.01705575980392157 0  0.01 0.01375 0  0.03625 0.0125 0  0.0021875 0.009375 0  0.05375000000000001 0.0175 0  0.07125000000000001 0.0175 0  0.005 0.0025 0  0.0021875 0.005625 0  0.02655220103578155 0.01234889948210923 0  0.002187499999999999 0.020625 0  0.02979166666666667 0.01302083333333333 0  0.0525 0.01 0  0.07895833333333334 0.0125 0  0.01994277885235332 0.01704213007736944 0  0.07934656179076068 0.01733823814273861 0  0.04505722114764669 0.01295786992263056 0  0.06625 0.0175 0  0.006250000000000001 0.0175 0  0.05750000000000001 0.02 0  0.05875000000000001 0.0175 0  0.005 0.0225 0  0.005 0.0075 0  0.002375 0.027375 0  0.002375 0.002625000000000001 0  0.0475 0.01 0  0.0175 0.02 0  0.0325 0.01 0  0.03375 0.0121875 0  0.04261299435028249 0.01749205508474576 0  0.08500000000000001 0.0125 0  0.08250000000000002 0.01 0  0.02121963399965531 0.01224824108143494 0  0.0675 0.02 0  0.0125 0.02 0  0.02720152243589744 0.0175 0  0.03715165441176471 0.0175 0  0.08500000000000001 0.0175 0  0.0275 0.01 0  0.0025 0.0149560546875 0  0.0075 0.01 0  0.0075 0.02 0  0.06526785714285716 0.0125 0  0.01281031447005516 0.0125 0  0.0625 0.015 0  0.06 0.0125 0  0.05750000000000001 0.01 0  0.0625 0.02 0  0.0625 0.01 0  0.08250000000000002 0.02 0  0.04260103740101855 0.01252623201412851 0  0.02240052247582197 0.01750164767101344 0  0.07293583459427785 0.01238479732953041 0  0.005234374999999999 0.012265625 0  0.03528131980640358 0.01454684009679821 0  0.0325 0.01760027210036557 0  0.02532593822924343 0.01428227733767297 0  0.08009952069819683 0.01527145502895417 0  0.01987282359856536 0.01482587683689801 0  0.04828232595121382 0.01210233572595705 0  0.01671767404878618 0.01789766427404295 0  0.05125 0.01829007549029352 0  0.05247215456215357 0.01288882122882024 0  0.07338729919678716 0.01799385040160642 0  0.03838729919678716 0.01200614959839357 0  0.07717482110586968 0.01780301674207099 0  0.04771860040890012 0.01773306039388322 0  0.03125 0.01160380747126437 0  0.06875000000000001 0.01154265873015873 0  0.07625000000000001 0.01154065860215054 0  0.01625 0.01153997817696946 0  0.068125 0.018125 0  0.05437500000000001 0.015625 0  0.066875 0.015625 0  0.07039794950204951 0.01494384850614853 0  0.05687500000000001 0.018125 0  0.006875 0.015625 0  0.008749999999999999 0.01833333333333333 0  0.010625 0.015625 0  0.05625 0.01416666666666667 0  0.05812500000000001 0.015625 0  0.0449088595298192 0.01494528408816316 0  0 0.016875 0  0 0.013125 0  0.04962452342047931 0.01478673066448802 0  0.0153754765795207 0.01521326933551198 0  0.0771774565913315 0.01322498191305479 0  0.01857756431135545 0.01840228599899994 0  0.04642243568864456 0.01159771400100006 0  0.08125000000000002 0.01155637254901961 0  0.08317650804863432 0.0118234919513657 0  0.08288217288011697 0.01511353252923977 0  0.02837253504384828 0.0117177464035174 0  0.03896057962520807 0.01831163685754031 0  0.01125 0.0114244162490927 0  0.00935910490099115 0.0119067901980177 0  0.02946078431372549 0.01495404411764706 0  0.02875 0.0185829434466942 0  0.002968749999999999 0.0225 0  0.064375 0.016875 0  0.00296875 0.0075 0  0 0.001875 0  0 0.005625 0  0 0.009375 0  0 0.020625 0  0 0.024375 0  0 0.028125 0  0.06062500000000001 0.01812500000000001 0  0.008303571428571429 0.01446428571428572 0  0.01375 0.01865917058160413 0  0.05137790313978056 0.01143372888932909 0  0.04125000000000001 0.01131513063942604 0  0.04101690263896279 0.01844430285842771 0  0.02399563533148224 0.01844349395710867 0  0.08125000000000002 0.01868815426145731 0  0.05354684380692146 0.01145463537600848 0  0.01699195823639423 0.01315138909884649 0  0.07598357371794873 0.015 0  0.04098357371794872 0.015 0  0.003744047619047619 0.00375 0  0.003344630281690141 0.02580853873239437 0  0.04625 0.0187354532243972 0  0.06388392857142858 0.01138392857142858 0  0.06375 0.01375 0  0.05875 0.01375 0  0.06375 0.02 0  0.00622802734375 0.01372802734375 0  0.003630681818181818 0.001369318181818182 0  0.003630681818181818 0.02863068181818182 0  0.06125 0.01625 0  0.06125 0.01125 0  0.05625000000000001 0.01 0  0.05875 0.01125 0  0.06125 0.01375 0  0.08337864763241221 0.0183786476324122 0  0.05213634138653413 0.01674432930673294 0  0.04375000000000001 0.01 0  0.07424178685897437 0.01529258578431373 0  0.03924178685897436 0.01529258578431372 0  0.03410139294454583 0.01843406022904556 0  0.03089860705545417 0.01843406022904556 0  0.02094160484316717 0.01850229584291991 0  0.04375000000000001 0.02 0  0.04437042160883325 0.01820701498672512 0  0.04816311705429156 0.01600061344661149 0  0.07151224904251052 0.0114127410511319 0  0.04395528506193162 0.01639387970349481 0  0.0128750358694518 0.0167500179347259 0  0.02855808448399799 0.01642839899839741 0  0.02812690373330794 0.01340955081400569 0  0.08358500641945087 0.01351822349116885 0  0.05590277777777778 0.01173611111111111 0  0.06683110430364615 0.01164926404662283 0  0.02573206694914602 0.01842532451809762 0  0.01438126661842046 0.01166701193099454 0  0.02384283211216029 0.01526549696571563 0  0.03625 0.02 0  0.004609375000000001 0.0182421875 0  0.003398437500000001 0.01943359375 0  0.001728307845744682 0.01894718251329787 0  0.004377805359085963 0.01656966216675735 0  0.04649673309852075 0.0153889662370871 0  0.03615513600614297 0.01592654988586041 0  0.03316985071935832 0.01598763605018279 0  0.03110111603888768 0.01529816275177977 0  0.01370614113484869 0.0138804542047638 0  0.04930041102671841 0.01842260568883502 0  0.07875000000000001 0.02 0  0.0745395359848485 0.01165101111925709 0  0.03860755698543604 0.01373741558556884 0  0.02605038706571737 0.01573944002207753 0  0.07559826163500957 0.01841729376139847 0  0.04437500000000001 0.01149157931286774 0  0.06874116707361365 0.01454618473032123 0  0.003761917372881356 0.0239307468220339 0  0.003984374999999999 0.01125 0  0.003768503289473684 0.01392539576480263 0  0.001796875 0.0111328125 0  0.003761917372881356 0.008930746822033899 0  0.005 0.00625 0  0.003761917372881355 0.0210692531779661 0  0.06633928571428571 0.01410714285714285 0  0.006484375 0.01125 0  0.08364120589325512 0.01657288979763549 0  0.03576267476503373 0.0184116442851204 0  0.07370875846579374 0.0137848203678562 0  0.06964285714285715 0.01758928571428571 0  0.05520833333333334 0.01833333333333333 0  0.06491071428571429 0.01839285714285714 0  0.0510098951944636 0.01559941474766356 0  0.01786087179886325 0.0115702210443714 0  0.01972197383235524 0.01160576093166696 0  0.01804697593127788 0.01433503795474974 0  0.001644074528704677 0.01642892723865279 0  0.00125 0.03 0  0.001497685185185185 0.001267746913580247 0  0.07315451164202422 0.01643443118912983 0  0.001233906745910645 0.0140625 0  0.01162635071030191 0.01362229857939618 0  0.01528023503083844 0.01845923557506155 0  0.06625 0.02 0  0.07695012019230771 0.01624387078484555 0  0.03139091092855769 0.01320776147621796 0  0.03857339107781042 0.01675295051810485 0  0.001754993120977522 0.02590789105493891 0  0.002288757784711197 0.00412546923654445 0  0.07914382119690884 0.01404430049871201 0  0.001391810103286306 0.01257390899021902 0  0.0419501201923077 0.01614675005432421 0  0.001484375 0.007018229166666667 0  0.001484375 0.02201822916666666 0  0.048
[...]
<PointData  Scalars="pressure"> 
<DataArray  type="Float64"  Name="pressure"  format="ascii">-3.7372267959572915e-06  9.5228977753386243e-04  6.0858541026170517e-04  2.9735429644879352e-04  3.4484433381664422e-04  1.3973626793921154e-04  9.4729894836133354e-04  -3.5961224098961529e-06  9.4727281454154650e-04  9.9267730978469179e-04  1.0045505011195019e-03  4.6493441235625457e-04  4.6497883545578344e-04  6.9797334365170958e-04  6.9796785608153440e-04  2.3168227000480420e-04  2.3180881963314940e-04  5.8143119048308101e-04  5.8136331239311268e-04  1.1494625822700214e-04  1.1531356353145140e-04  8.1458785660832721e-04  8.1427707408044693e-04  3.4794390036111387e-04  3.4821348720224106e-04  1.7353326241200027e-04  1.7352856321864289e-04  4.0668470161337860e-04  6.3964205077711889e-04  6.3967378282938909e-04  5.2323705114496106e-04  8.7265646778563594e-04  7.5616182087217046e-04  2.9004427839448448e-04  -4.9048295569526260e-21  4.0654095607788211e-04  1.4431378845147989e-04  5.2342562902431397e-04  5.5226876470686290e-04  3.7744057821671517e-04  7.5613526649356843e-04  8.7363761813321619e-04  6.6876727590074975e-04  8.4345307626502162e-04  5.6842708573663261e-05  5.6389170838644411e-05  6.1052174441909661e-04  4.8913577424790225e-04  2.3174117446585093e-04  1.0262911767106731e-03  9.2560574042542174e-04  7.3186221192255850e-04  8.1184154643007222e-05  1.0431957279050386e-03  2.8997218884139602e-04  2.8974624538472102e-04  7.8766655443231648e-04  4.3327487173149850e-04  1.8803786397289244e-04  8.8703423276099589e-04  3.3376587336747765e-04  1.0231746013272761e-03  9.6370528683847423e-04  9.5880461559887760e-04  1.0396637481199561e-03  4.0042696667657327e-05  2.0256830167381814e-04  9.0137361268377927e-04  2.6087634510398863e-04  3.1918259333808688e-04  2.6087899320845204e-04  3.2839858643752964e-05  2.0051907662007272e-04  7.8523178609847717e-04  7.7067671997550454e-04  4.3526995955550960e-04  4.5736830413793824e-04  9.4485673007244314e-04  1.4165664514475364e-03  1.3951310453872924e-03  9.4744509815782398e-04  8.1176196572466303e-04  4.0911378635284765e-04  6.1030833400775304e-04  5.8440070551678031e-04  5.5211418996401189e-04  6.3665104132513777e-04  6.6868030951074923e-04  3.7746139349861233e-04  8.4353924220693954e-04  5.2070897597583838e-04  5.5239267215377119e-04  7.2693056187560267e-04  7.0031442433797844e-04  1.1274412553408676e-04  1.4432348521852882e-04  1.1273037469426474e-04  1.4393581967848777e-04  5.2072297606960496e-04  7.2703447625655057e-04  7.1246573125056945e-04  4.9396080134194906e-04  4.9421800558243289e-04  8.6610576022389955e-05  8.6137474234582504e-05  4.0236321008243396e-04  1.6699653017128866e-04  3.5317015483023596e-04  1.0286121241690591e-03  1.0915751164490685e-03  8.5819950120003333e-04  8.1862352704282538e-04  8.7236690378920164e-04  5.6680467188986348e-04  9.7248185195490471e-04  3.6289243655091133e-04  1.5888252672330096e-04  1.0653577805937345e-03  1.0141417459519496e-03  6.7982037420076177e-04  9.8032927355763298e-04  6.4206471123519490e-04  3.7721086357219824e-04  6.8967581445244957e-05  7.5678684416372543e-04  6.4476219503339547e-05  4.6417573826986635e-04  2.1718056976252362e-04  9.1706493689499061e-04  3.1952087828752388e-04  3.0464853811292648e-04  1.0041403279964561e-03  9.9261320411422470e-04  1.0807660142495704e-03  1.0559485537881836e-03  4.3571091128898081e-04  7.8476352566059422e-04  6.1051624603150460e-04  5.9598516569057361e-04  4.9268042813149435e-04  -1.1194574111566958e-07  2.7741349760779642e-05  7.4192978719498563e-04  2.0238789331298568e-04  8.4376178070722408e-04  6.7224568523176036e-04  5.5634222440237508e-04  -1.0267387055963344e-07  6.6840519812986208e-04  9.4234482173938315e-04  9.0253052779387861e-04  9.0378400169703827e-04  2.2861213207468563e-04  8.3979047170243534e-04  2.6088920872765234e-04  2.9004739679326864e-04  3.1917276297980786e-04  2.6072085360007310e-04  2.6036823165732491e-04  2.7859855621308944e-05  4.9282234578880977e-04  7.2816304670946636e-04  1.3923884642768781e-04  9.2736760407472428e-04  5.7811721616715325e-04  6.1051582292713513e-04  6.9409710855862820e-04  5.5816278790032972e-05  7.5760394814140147e-04  4.2658549738988101e-04  7.9436721248340699e-04  3.9198951624631558e-04  3.7776076014424138e-04  1.3393697576439525e-04  5.4191776593877394e-04  8.9814778101327027e-05  4.3309736656777778e-04  6.2505948225522313e-04  1.8804195938225949e-04  1.0059829145070312e-04  7.9976197534215260e-04  1.9532788494242329e-04  3.5560159374302131e-04  2.0988928527799415e-04  1.6882526076457763e-04  3.2654032125807684e-04  9.0760831481847008e-04  8.8792990432267401e-04  8.6526631100534491e-04  3.3375340051205012e-04  3.1190951734139311e-04  4.6590920449096184e-04  9.5182132590359398e-04  9.4968919973098846e-04  4.1094157543711322e-04  8.0998722625305283e-04  8.9786655624688027e-05  7.7265515588527574e-04  4.4825489110265004e-04  4.2168071794665367e-05  1.9710689779772135e-05  2.3842131724826975e-05  6.5857728977593559e-04  5.3527713230505560e-04  8.5795717655002721e-04  8.7993172756442584e-04  6.4592472138999503e-04  6.5418815472848436e-04  1.0041101528810179e-03  2.3902248503392560e-04  9.9290693806012610e-04  1.0202291197965909e-03  1.0117304404009418e-03  9.7438782373687326e-04  9.8225730067231696e-04  1.0255380832519874e-03  1.0291783895906956e-03  2.8275504497989322e-04  8.9167852663280477e-04  8.2906506010545136e-04  3.9050305226538234e-04  5.0858192831814645e-04  5.1131658103222835e-04  7.0956416241758176e-04  4.2112040262115601e-05  3.6526270005458026e-04  7.9114021647808043e-04  1.0370490922896958e-04  5.1167424951809124e-04  1.0443819018213841e-03  1.0549228486312935e-03  4.5025342053185279e-04  2.4473641369283038e-04  2.4631005840422538e-04  3.0461452489658321e-04  2.4609841679588241e-04  9.1429092573007593e-04  1.1306486113814404e-03  1.1529688089192368e-03  2.7546810921935688e-04  2.7545030599252223e-04  3.3387795615291585e-04  3.0460782625497338e-04  2.7546793726547649e-04  1.7102339295760880e-05  3.8167617965223722e-04  4.7916505059808072e-04  1.2400491502018033e-04  5.3197594773134909e-04  5.9185493884167265e-04  6.2921912164453980e-04  7.4516390866215514e-04  4.7927523835563127e-04  4.7220175541799286e-04  4.2796232028259601e-04  1.5584903252107129e-04  4.7702691129186843e-04  8.3918326659089559e-04  6.5644125232220166e-04  6.6146127046944145e-04  1.5756511706151636e-05  3.3778299813928266e-04  2.1037022445163711e-04  6.8938196581946898e-04  8.2148672030791657e-04  7.1136903477460117e-04  5.6712610266433758e-04  9.3886280192446438e-04  9.6103956712211632e-04  9.6372010215318104e-04  9.3364613428466813e-04  4.4739682277423505e-04  5.6794374607282462e-04  6.0271792185558656e-04  6.2681746585177686e-04  8.2938966307118545e-04  4.1467897783236887e-04  7.1386854353841793e-05  1.2053180197031899e-04  5.3935915350394176e-04  6.8565507835676950e-04  1.0816554312917047e-04  4.7213646923847290e-04  1.8813887850821232e-04  1.0251889758431016e-03  9.4519671945414929e-04  9.3558797081774985e-04  9.5775012414058751e-04  9.7401263319028635e-04  1.0087680462021744e-03  9.8244161608402854e-04  2.1612898137638527e-04  9.1514415530019220e-04  1.5101451896570812e-05  5.7255991052957192e-04  1.3022325220385635e-04  1.7763747016199174e-04  3.4589434998182712e-04  2.3276614743902735e-04  3.9479726176059883e-04  7.8103173626588036e-04  7.5935553881735767e-04  7.7886415846228549e-04  9.4851175532455060e-04  1.0757546696205864e-03  1.0292265308667087e-03  1.3667321532824365e-04  9.4664130189157133e-04  8.5355646022145968e-04  8.1114149589054372e-04  2.1739300735016510e-04  9.2436645302058595e-05  6.2343640481569756e-04  5.3977269398252118e-04  1.0462503416916475e-03  1.0311944258279584e-03  6.6894777107187492e-05  9.5046373827466712e-04  5.0040664088286837e-04  9.9814496377674056e-04  9.9824472012244661e-04  4.1873102404787636e-04  4.0979253426674415e-04  8.0222297315543428e-04  3.8974179145295323e-04  4.4606038255635700e-04  7.7488691980577074e-04  4.7787288098083733e-04  7.4564004416212621e-04  5.0040498895868564e-04  3.6562499062395683e-04  5.2488467482344103e-04  8.2718534846158915e-04  7.4372231496107094e-04  7.2842376720107628e-04  6.9712668711931062e-04  7.1251223779852154e-04  6.8351125016997895e-04  7.2568464093115872e-04  1.8387998254946385e-04  1.5626253223350204e-04  8.2636451727122708e-05  1.0154973913251270e-03  1.0167586488427308e-03  9.8327430370229499e-04  6.4192844283685133e-04  1.0514837933347343e-03  6.7817209940759424e-04  5.8251847554789161e-04  1.6752932135145491e-04  2.0260855609603989e-04  3.4832851488497490e-04  2.0988843868410131e-04  1.4877708922650591e-04  8.7528513972498403e-04  5.8017615085255349e-04  5.6647519584356520e-04  5.5672514062023940e-04  8.9970089773227103e-04  9.1949738268548499e-04  2.9247684360575243e-04  2.2445827353731227e-04  3.1192129359936872e-04  3.7507531893817594e-04  5.6311678916637538e-04  8.5820784596327344e-04  2.5361528430210058e-04  8.6897369357180946e-04  8.4617805209334272e-04  9.0769558910192677e-04  1.5689381803481907e-04  3.1920987637840798e-04  3.9401682129110586e-05  5.9452966495340115e-04  8.8699422924242441e-04  1.7201508781273289e-04  3.4992402738534420e-04  4.8361604701983494e-05  6.4087792279204358e-05  6.9730876920154924e-05  1.0200076701925044e-03  3.6290357999693506e-04  5.2665135821193435e-05  7.0881899908739596e-05  5.9209047185909092e-05  7.9961727223153763e-04  4.2112624480447142e-04  9.5669507104215699e-04  6.1770578914511825e-04  1.7235040518963780e-04  9.2059623214646902e-04  8.8708787200370649e-04  8.9463302145104172e-04  7.1621822085232809e-04  7.7068227469896168e-04  6.9374031539907988e-04  3.3386940743592136e-04  2.4631179538597934e-04  1.8826519823770106e-04  2.7556386857238881e-04  7.1563350995123643e-04  4.4165079597610114e-04  8.6633722728354334e-04  5.5246937532663250e-04  1.0323348027892400e-03  1.0288182734289855e-03  1.0920716157912537e-03  1.2951320198863509e-04  8.0093337707207223e-04  6.3397686012951434e-04  9.5931736898782587e-04  8.7909250630724585e-04  4.8671525109885387e-04  7.4156844762819304e-04  9.4132009755753014e-04  5.5263071551221506e-07  7.6087908203707633e-06  2.6870421551708398e-04  2.9683164307614984e-04  1.2981970977495106e-04  5.3763824738047592e-04  1.8259059838959352e-04  6.0791892441529999e-04  6.0914364913992544e-04  5.9626905111759818e-04  7.5538074626910299e-04  7.7237640791962946e-04  3.1953224647906191e-04  6.7239886051009769e-04  4.8766392931255220e-04  5.5801943830116997e-04  5.5334767553192764e-04  7.3150114613721904e-04  1.3426845015958674e-04  8.3613578455028531e-04  6.7095784575673734e-04  6.8582637039609222e-04  6.6886479857002296e-04  5.7047371719810391e-04  8.5151376625242851e-04  2.3015055645461552e-04  2.3017750462297031e-04  2.1456056809467813e-04  9.6777045793733699e-04  3.6787924153402227e-04  9.4319792915658089e-04  7.4248242971218840e-04  7.2413867600367647e-04  1.5877352918241115e-04  1.0075150720054072e-04  4.2090997518621603e-04  6.8348406345500692e-04  1.5902256821182851e-04  5.9587095548882670e-04  2.6088791779974333e-04  2.1700725782846891e-04  2.4635687196213063e-04  3.6309914415060500e-04  4.1941222721316166e-05  7.1229232473152650e-04  3.9196598954597937e-04  5.0853702783617942e-04  5.3762591868378824e-04  4.2001123492851917e-05  1.0056003744504603e-04  1.8804778815132532e-04  3.9199499318645989e-04  5.0863809226956997e-04  1.0222190696209199e-03  -1.0079191756522491e-08  3.1918699478092040e-04  2.6091305436949799e-04  8.2904843769545159e-04  8.5795441318125621e-04  8.8807598471348328e-04  7.9976357306490498e-04  9.7687169958258460e-04  8.2862237977747899e-04  1.3162484267154261e-03  1.0457394969144178e-03  1.0992880194012388e-03  1.2794451271597688e-03  1.0806708826237485e-03  9.1751308785006209e-04  9.2602973182460589e-04  9.8600647597599407e-04  6.3031687129761232e-09  7.4165562534519623e-04  2.6088779542687385e-04  1.0658497162318583e-03  6.5412686108826741e-04  6.5434825104244022e-04  7.7062570682973845e-04  6.2494970038069384e-04  1.1375148817526024e-03  6.9517664519922545e-07  6.2534457639644707e-04  3.6052989176781449e-04  2.7546721623867274e-04  2.9004296495627169e-04  3.0460858014901221e-04  2.9005275787381856e-04  3.0455566608066044e-04  2.7547642855965470e-04  2.7606709963148900e-04  4.5063277297431825e-04  4.5022727715627827e-04  3.0470633407835110e-04  8.0480197635634714e-06  5.0773085382120565e-04  7.8572813240738686e-05  4.2840802849824307e-04  5.0727581546431127e-04  4.5363415639016315e-04  9.2671306489929407e-04  7.1126695907054195e-04  3.3860473942618917e-04  2.0235310863212825e-04  1.2249867917767010e-04  2.7774561855731000e-05  4.7816078918049433e-04  1.5273345851283681e-04  3.4089709668754756e-04  9.7213779985461785e-04  9.4678748487020902e-04  6.1507753152351336e-04  5.9687338676355710e-04  7.9551090059538221e-05  1.0017652160677112e-03  9.5441936689541818e-05  1.0690393796119800e-03  9.7511788914756879e-04  6.4843271027655394e-04  3.2566630717146953e-04  1.7463725437501509e-04  3.5100806109184478e-04  2.4268820837833053e-04  5.3342530922208729e-05  7.5881676960807859e-04  3.9535534976286576e-04  9.3585327299902448e-04  1.0314941777836832e-03  8.2657502074040892e-04  1.2632012473954757e-04  1.1819413841835456e-04  5.2730220815531655e-04  9.3020212700782882e-04  9.1448808281678780e-04  9.3742154272325330e-04  4.2037586919255036e-04  5.8076337147414949e-04  2.7452845111397781e-05  6.2526836700254229e-04  6.9885623314891150e-04  2.4783969228437671e-04  3.3728896430787930e-04  7.3828722033729324e-04  1.2084667780200630e-04  7.8560311529525702e-04  4.3142571587347610e-04  4.2842341051092521e-04  7.8825985240887138e-04  1.4349368812623182e-04  8.6225482112355090e-04  4.4619958289168115e-04  5.4524144421075934e-04  8.5312249958290997e-04  5.5959730628293981e-05  1.0035774936111961e-04  4.3940914154082005e-05  7.5862305449607534e-04  7.6271805291446546e-04  9.0455136242919198e-04  1.1590078057335240e-03  1.9626628251897692e-04  1.4586012569701144e-04  5.3203390109458849e-04  9.1527618974977234e-04  5.9251904036158702e-04  1.0091274729874856e-03  5.9529470322828670e-04  3.7787627777760709e-04  6.8490352241836687e-04  6.4180402746789216e-04  7.9942903138821976e-04  3.0312925249639208e-05  4.9963487694408104e-04  9.2442839643540995e-05  4.5990486814114244e-04  8.2090510777151093e-04  1.1126802923323161e-03  5.4487796209611787e-04  1.3691384973756800e-04  7.0467513684827001e-04  7.7020315618311235e-05  4.0369642996858590e-04  8.9817079841504404e-04  9.5674820123305452e-04  2.6452907546470947e-05  1.2132550609526680e-05  3.9925919541661671e-04  6.1311600867874981e-04  3.6546155706115559e-04  3.9006362978617575e-04  5.3041293972662460e-04  1.8030013460248738e-04  7.4535599746520132e-04  8.3025152037855703e-04  1.0057507162231677e-03  9.8818938976651506e-04  1.0096790264075442e-03  8.4176266386933127e-04  2.2442727469007881e-04  9.2770890736639606e-04  8.7980464060277784e-04  8.9657050238231356e-04  8.8748884803894871e-04  1.2424153557470642e-04  1.0373589447288069e-04  5.4319159232047018e-04  4.1340130475677687e-04  3.7768376241365301e-04  6.1673993430617251e-04  5.6672382906414350e-04  3.8472277862143512e-04  5.2295798300359573e-04  5.2216464245663432e-04  1.0233945067571087e-03  8.0760625177137978e-04  5.7021536475826136e-04  1.5628724037091598e-04  6.8325829876692381e-04  6.6027053430629064e-04  5.5119717676575981e-04  6.4990109874508691e-04  7.6337624929526571e-04  9.8705974302802017e-04  9.5166939457269281e-04  6.0326496897556705e-04  1.0286945978650579e-03  6.3441082390555377e-04  6.3231813912274456e-04  9.9849263353658487e-04  9.9020536406285134e-04  9.8788800149708037e-04  4.5944897771587972e-04  4.6246151138315506e-04  7.8131710915533116e-04  6.2237245545950816e-04  4.8837921543260431e-04  1.0179821563225165e-03  9.8109814331680625e-04  5.6871326338749507e-04  8.7989596272709835e-04  9.5497412972662932e-04  9.5568370383874047e-04  7.1276111601267710e-05  4.0222788805343451e-04  7.2246057169130374e-04  3.8730459635764593e-05  4.9446205790645254e-05  3.4604040868492993e-05  4.7755478147595539e-04  4.6622793288651548e-04  4.5861701146715804e-04  4.0056941001914204e-04  1.9363697212739845e-04  1.9533177330711599e-04  9.4869771524002332e-04  4.0669456705921938e-04  8.1656288083255181e-04  7.9786273167190046e-04  4.2175322946003319e-04  9.3302210167248373e-05  1.1106046700648682e-04  1.1011836890923716e-04  9.8882694180655917e-05  7.9248838882758075e-04  8.1019518605172729e-04  8.0702129741715102e-04  5.4463707023202500e-04  2.4210071100896967e-04  2.8275972263777204e-04  2.5066414037278344e-04  8.7562083467396094e-04  1.9533554789148146e-04  2.3538380775867986e-04  3.2652280756628130e-04  2.0624444996266133e-04  1.9168360556541203e-04  3.6660038433194037e-04  9.0861207920479034e-04  8.6540453122428609e-04  3.1185444603826814e-04  8.9570718645186201e-04  2.1353297911246008e-04  2.2081456677252049e-04  2.2809507333513914e-04  3.1559694253042390e-04  3.0462751738058214e-04  2.9311326181081121e-04  2.7240486944599612e-04  3.0176971049251152e-04  2.8657207242043675e-04  6.7032749345192645e-05  9.6357770521547024e-06  4.3881114049681053e-04  3.4109221975571382e-04  8.1198426428889139e-05  5.0917840918783910e-04  6.5723786569296119e-04  6.3781834446595832e-04  8.6817916804695727e-04  6.5987344104131388e-04  7.3540931098743331e-04  7.6668193886022672e-04  5.8230100303207440e-04  8.9066578538941703e-04  8.4657045241130714e-04  7.2185288977701144e-05  1.8078334187875497e-04  7.0947830479335119e-04  6.9839708117304844e-04  6.1780317038338318e-04  3.1085564928718359e-05  1.9668109736763037e-05  8.2801787540402516e-06  4.6248538604521739e-04  8.5749139692025745e-04  5.0040517229262948e-04  5.1611126317396567e-04  5.1235680829919748e-04  1.0425394043898644e-04  5.8739026362620498e-04  4.8914201531988786e-04  5.1903010698012525e-04  4.3987900832547660e-04  7.7817283788677190e-06  6.4883947020673521e-04  6.6149421988617621e-04  6.6867684588871725e-04  1.0415789509732455e-03  9.5601460151269256e-04  3.4104826092306125e-04  3.2984265002848027e-04  8.2185237964460352e-05  7.9967323914465328e-04  5.9140947588801106e-04  7.9012569127583630e-04  5.3214065507081641e-05  1.0062183655272811e-03  7.4887304832591363e-04  7.0538196243303674e-04  4.1782832655404940e-04  1.0029231446170906e-03  4.8262390962893620e-04  4.7626249229211764e-04  4.6885742068268079e-04  8.7679801316758012e-04  8.5062014307942489e-04  1.0125520396921867e-03  7.6845861710244040e-04  8.4128232402474166e-04  6.4693444559053078e-04  4.3905949678414382e-04  9.3282012491630227e-05  3.7455073134868509e-04  4.5028391917132858e-05  7.7007844429171387e-04  9.9252941616593334e-04  1.0153659053078929e-03  9.6579638169441012e-04  2.4266987634421564e-04  1.0199101924158527e-03  9.8331983298991822e-04  9.5366340362286050e-04  9.4730547673121176e-04  1.0396699285579799e-03  9.5707673391457241e-04  1.0338656151816046e-03  7.2686740329469188e-04  1.7915453248116449e-04  8.2091206252631662e-04  1.4542640975420508e-04  1.0385301257691928e-03  7.9049780125049545e-04  7.8100506049657127e-04  5.0149870186057819e-04  7.2033027227964700e-04  7.1863406304545005e-04  7.0515965199796811e-04  1.1503901210300949e-04  6.1580035250588557e-05  7.6920493233474175e-04  1.1116563912231616e-05  2.2270341032541398e-05  2.5181075275947458e-05  5.3031277338130378e-04  5.3020914998667468e-04  1.0689621471811010e-03  5.7185684570498156e-04  8.8148624607961817e-04  5.2208748432446158e-04  8.1926669072220504e-04  8.3639991412821219e-04  1.2950228769457236e-04  1.2245904138009914e-04  1.0320003807085709e-03  6.7151106517676705e-04  8.5567311164421313e-04  4.5293387970146861e-04  3.8164965600854720e-04  3.9657507537066905e-04  3.4016174750844885e-05  3.2760190146128676e-04  4.9797747288219643e-04  5.0122416008775521e-04  4.1762064657108801e-04  4.9402036798863950e-05  6.5069409809057413e-04  8.9732437380956361e-04  7.7934716571284341e-04  6.3238749025776970e-04  5.8868653658952286e-04  6.0231260431063769e-04  9.3988208451803424e-04  9.4643308787731913e-04  9.6447547322759688e-04  3.6907155566897790e-04  3.566