<?xml version="1.0"?>
<VTKFile type="UnstructuredGrid"  version="0.1"  >
<UnstructuredGrid>
<Piece  NumberOfPoints="1079" NumberOfCells="1944">
<Points>
<DataArray  type="Float64"  NumberOfComponents="3"  format="ascii">0.08500000000000001 0.02 0  0.005 0.02 0  0.005 0.03 0  0 0.03 0  0 0 0  0.005 0 0  0.005 0.01 0  0.08500000000000001 0.01 0  0 0.015 0  0 0.0075 0  0 0.0225 0  0.04500000000000001 0.02 0  0.04500000000000001 0.01 0  0.025 0.01 0  0.025 0.02 0  0.065 0.02 0  0.065 0.01 0  0.035 0.02 0  0.035 0.01 0  0.07500000000000001 0.02 0  0.07500000000000001 0.01 0  0.015 0.02 0  0.015 0.01 0  0.05500000000000001 0.01 0  0.05500000000000001 0.02 0  0.07000000000000001 0.01 0  0.07000000000000001 0.02 0  0.05 0.01 0  0.03 0.01 0  0.03 0.02 0  0.04000000000000001 0.01 0  0.01 0.01 0  0.02 0.02 0  0.06 0.015 0  0.08500000000000001 0.015 0  0.05 0.02 0  0.07250000000000001 0.015 0  0.04000000000000001 0.02 0  0.03750000000000001 0.015 0  0.0525 0.015 0  0.02 0.01 0  0.01 0.02 0  0.0275 0.015 0  0.0125 0.015 0  0.08000000000000002 0.01 0  0.08000000000000002 0.02 0  0.0325 0.014375 0  0.04291666666666667 0.015 0  0.065 0.015 0  0.005 0.005 0  0.005 0.015 0  0.02208333333333334 0.015 0  0.07791666666666668 0.015 0  0.005 0.025 0  0.06 0.01 0  0.06 0.02 0  0.01729166666666667 0.01572916666666667 0  0.04770833333333334 0.01427083333333334 0  0.06875000000000001 0.01625 0  0.008750000000000001 0.01625 0  0.05625000000000001 0.01625 0  0 0.00375 0  0 0.01875 0  0 0.01125 0  0 0.02625 0  0.08145833333333334 0.01354166666666667 0  0.0675 0.01 0  0.0075 0.0125 0  0.0625 0.0175 0  0.0575 0.0125 0  0.0625 0.0125 0  0.08207465277777778 0.01707465277777778 0  0.06767857142857144 0.01321428571428571 0  0.0175 0.01 0  0.01875 0.01291382575757576 0  0.0475 0.02 0  0.04564168086314595 0.01679860519591141 0  0.00296875 0.0125 0  0.0025 0.03 0  0.0025 0 0  0.00296875 0.0175 0  0.01521990740740741 0.0132349537037037 0  0.0497800925925926 0.0167650462962963 0  0.0325 0.02 0  0.03474264705882353 0.01674632352941176 0  0.03750000000000001 0.02 0  0.03025735294117647 0.01674632352941176 0  0.0275 0.02 0  0.0525 0.02 0  0.0125 0.01 0  0.04020833333333334 0.01322916666666667 0  0.03750000000000001 0.01 0  0.0225 0.02 0  0.02479166666666667 0.01677083333333333 0  0.07520833333333335 0.01322916666666667 0  0.07250000000000001 0.01 0  0.07520833333333335 0.01677083333333334 0  0.07250000000000001 0.02 0  0.04020833333333334 0.01677083333333333 0  0.0225 0.01 0  0.02375 0.01262152777777778 0  0.04250000000000001 0.02 0  0.04250000000000001 0.01 0  0.07750000000000001 0.01 0  0.07750000000000001 0.02 0  0.05036151960784314 0.01294424019607843 0  0.0705560064935065 0.01284699675324675 0  0.05458333333333334 0.01291666666666666 0  0.0021875 0.024375 0  0.005 0.0275 0  0.01125 0.0175 0  0.01463848039215686 0.01705575980392157 0  0.01 0.01375 0  0.03625 0.0125 0  0.0021875 0.009375 0  0.05375000000000001 0.0175 0  0.07125000000000001 0.0175 0  0.005 0.0025 0  0.0021875 0.005625 0  0.02655220103578155 0.01234889948210923 0  0.002187499999999999 0.020625 0  0.02979166666666667 0.01302083333333333 0  0.0525 0.01 0  0.07895833333333334 0.0125 0  0.01994277885235332 0.01704213007736944 0  0.07934656179076068 0.01733823814273861 0  0.04505722114764669 0.01295786992263056 0  0.06625 0.0175 0  0.006250000000000001 0.0175 0  0.05750000000000001 0.02 0  0.05875000000000001 0.0175 0  0.005 0.0225 0  0.005 0.0075 0  0.002375 0.027375 0  0.002375 0.002625000000000001 0  0.0475 0.01 0  0.0175 0.02 0  0.0325 0.01 0  0.03375 0.0121875 0  0.04261299435028249 0.01749205508474576 0  0.08500000000000001 0.0125 0  0.08250000000000002 0.01 0  0.02121963399965531 0.01224824108143494 0  0.0675 0.02 0  0.0125 0.02 0  0.02720152243589744 0.0175 0  0.03715165441176471 0.0175 0  0.08500000000000001 0.0175 0  0.0275 0.01 0  0.0025 0.0149560546875 0  0.0075 0.01 0  0.0075 0.02 0  0.06526785714285716 0.0125 0  0.01281031447005516 0.0125 0  0.0625 0.015 0  0.06 0.0125 0  0.05750000000000001 0.01 0  0.0625 0.02 0  0.0625 0.01 0  0.08250000000000002 0.02 0  0.04260103740101855 0.01252623201412851 0  0.02240052247582197 0.01750164767101344 0  0.07293583459427785 0.01238479732953041 0  0.005234374999999999 0.012265625 0  0.03528131980640358 0.01454684009679821 0  0.0325 0.01760027210036557 0  0.02532593822924343 0.01428227733767297 0  0.08009952069819683 0.01527145502895417 0  0.01987282359856536 0.01482587683689801 0  0.04828232595121382 0.01210233572595705 0  0.01671767404878618 0.01789766427404295 0  0.05125 0.01829007549029352 0  0.05247215456215357 0.01288882122882024 0  0.07338729919678716 0.01799385040160642 0  0.03838729919678716 0.01200614959839357 0  0.07717482110586968 0.01780301674207099 0  0.04771860040890012 0.01773306039388322 0  0.03125 0.01160380747126437 0  0.06875000000000001 0.01154265873015873 0  0.07625000000000001 0.01154065860215054 0  0.01625 0.01153997817696946 0  0.068125 0.018125 0  0.05437500000000001 0.015625 0  0.066875 0.015625 0  0.07039794950204951 0.01494384850614853 0  0.05687500000000001 0.018125 0  0.006875 0.015625 0  0.008749999999999999 0.01833333333333333 0  0.010625 0.015625 0  0.05625 0.01416666666666667 0  0.05812500000000001 0.015625 0  0.0449088595298192 0.01494528408816316 0  0 0.016875 0  0 0.013125 0  0.04962452342047931 0.01478673066448802 0  0.0153754765795207 0.01521326933551198 0  0.0771774565913315 0.01322498191305479 0  0.01857756431135545 0.01840228599899994 0  0.04642243568864456 0.01159771400100006 0  0.08125000000000002 0.01155637254901961 0  0.08317650804863432 0.0118234919513657 0  0.08288217288011697 0.01511353252923977 0  0.02837253504384828 0.0117177464035174 0  0.03896057962520807 0.01831163685754031 0  0.01125 0.0114244162490927 0  0.00935910490099115 0.0119067901980177 0  0.02946078431372549 0.01495404411764706 0  0.02875 0.0185829434466942 0  0.002968749999999999 0.0225 0  0.064375 0.016875 0  0.00296875 0.0075 0  0 0.001875 0  0 0.005625 0  0 0.009375 0  0 0.020625 0  0 0.024375 0  0 0.028125 0  0.06062500000000001 0.01812500000000001 0  0.008303571428571429 0.01446428571428572 0  0.01375 0.01865917058160413 0  0.05137790313978056 0.01143372888932909 0  0.04125000000000001 0.01131513063942604 0  0.04101690263896279 0.01844430285842771 0  0.02399563533148224 0.01844349395710867 0  0.08125000000000002 0.01868815426145731 0  0.05354684380692146 0.01145463537600848 0  0.01699195823639423 0.01315138909884649 0  0.07598357371794873 0.015 0  0.04098357371794872 0.015 0  0.003744047619047619 0.00375 0  0.003344630281690141 0.02580853873239437 0  0.04625 0.0187354532243972 0  0.06388392857142858 0.01138392857142858 0  0.06375 0.01375 0  0.05875 0.01375 0  0.06375 0.02 0  0.00622802734375 0.01372802734375 0  0.003630681818181818 0.001369318181818182 0  0.003630681818181818 0.02863068181818182 0  0.06125 0.01625 0  0.06125 0.01125 0  0.05625000000000001 0.01 0  0.05875 0.01125 0  0.06125 0.01375 0  0.08337864763241221 0.0183786476324122 0  0.05213634138653413 0.01674432930673294 0  0.04375000000000001 0.01 0  0.07424178685897437 0.01529258578431373 0  0.03924178685897436 0.01529258578431372 0  0.03410139294454583 0.01843406022904556 0  0.03089860705545417 0.01843406022904556 0  0.02094160484316717 0.01850229584291991 0  0.04375000000000001 0.02 0  0.04437042160883325 0.01820701498672512 0  0.04816311705429156 0.01600061344661149 0  0.07151224904251052 0.0114127410511319 0  0.04395528506193162 0.01639387970349481 0  0.0128750358694518 0.0167500179347259 0  0.02855808448399799 0.01642839899839741 0  0.02812690373330794 0.01340955081400569 0  0.08358500641945087 0.01351822349116885 0  0.05590277777777778 0.01173611111111111 0  0.06683110430364615 0.01164926404662283 0  0.02573206694914602 0.01842532451809762 0  0.01438126661842046 0.01166701193099454 0  0.02384283211216029 0.01526549696571563 0  0.03625 0.02 0  0.004609375000000001 0.0182421875 0  0.003398437500000001 0.01943359375 0  0.001728307845744682 0.01894718251329787 0  0.004377805359085963 0.01656966216675735 0  0.04649673309852075 0.0153889662370871 0  0.03615513600614297 0.01592654988586041 0  0.03316985071935832 0.01598763605018279 0  0.03110111603888768 0.01529816275177977 0  0.01370614113484869 0.0138804542047638 0  0.04930041102671841 0.01842260568883502 0  0.07875000000000001 0.02 0  0.0745395359848485 0.01165101111925709 0  0.03860755698543604 0.01373741558556884 0  0.02605038706571737 0.01573944002207753 0  0.07559826163500957 0.01841729376139847 0  0.04437500000000001 0.01149157931286774 0  0.06874116707361365 0.01454618473032123 0  0.003761917372881356 0.0239307468220339 0  0.003984374999999999 0.01125 0  0.003768503289473684 0.01392539576480263 0  0.001796875 0.0111328125 0  0.003761917372881356 0.008930746822033899 0  0.005 0.00625 0  0.003761917372881355 0.0210692531779661 0  0.06633928571428571 0.01410714285714285 0  0.006484375 0.01125 0  0.08364120589325512 0.01657288979763549 0  0.03576267476503373 0.0184116442851204 0  0.07370875846579374 0.0137848203678562 0  0.06964285714285715 0.01758928571428571 0  0.05520833333333334 0.01833333333333333 0  0.06491071428571429 0.01839285714285714 0  0.0510098951944636 0.01559941474766356 0  0.01786087179886325 0.0115702210443714 0  0.01972197383235524 0.01160576093166696 0  0.01804697593127788 0.01433503795474974 0  0.001644074528704677 0.01642892723865279 0  0.00125 0.03 0  0.001497685185185185 0.001267746913580247 0  0.07315451164202422 0.01643443118912983 0  0.001233906745910645 0.0140625 0  0.01162635071030191 0.01362229857939618 0  0.01528023503083844 0.01845923557506155 0  0.06625 0.02 0  0.07695012019230771 0.01624387078484555 0  0.03139091092855769 0.01320776147621796 0  0.03857339107781042 0.01675295051810485 0  0.001754993120977522 0.02590789105493891 0  0.002288757784711197 0.00412546923654445 0  0.07914382119690884 0.01404430049871201 0  0.001391810103286306 0.01257390899021902 0  0.0419501201923077 0.01614675005432421 0  0.001484375 0.007018229166666667 0  0.001484375 0.02201822916666666 0  0.048
[...]
<PointData  Scalars="pressure"> 
<DataArray  type="Float64"  Name="pressure"  format="ascii">-8.8623034015792904e-05  2.2590903576431322e-02  1.4404729281698453e-02  7.2570039701425034e-03  8.4554973834208916e-03  3.4659916101496824e-03  2.2481495386041505e-02  -8.5272703076738396e-05  2.2477445848786134e-02  2.3565407710186604e-02  2.3827054603969396e-02  1.1032023876762052e-02  1.1033071444085678e-02  1.6561629718146068e-02  1.6561493363832735e-02  5.4973611160120395e-03  5.5003534828353276e-03  1.3796287882970588e-02  1.3794665008317339e-02  2.7274129442351400e-03  2.7361293231570895e-03  1.9328571133020899e-02  1.9321411161891261e-02  8.2560301623522698e-03  8.2624332532457694e-03  4.1175792954890617e-03  4.1174591583128251e-03  9.6498504311015292e-03  1.5177522954037298e-02  1.5178281101642087e-02  1.2415433816113109e-02  2.0707085481712711e-02  1.7942315496922399e-02  6.8821794577138100e-03  -5.6055194936601446e-20  9.6464451014469255e-03  3.4242509661919695e-03  1.2419907792144720e-02  1.3104307158203531e-02  8.9559412850556911e-03  1.7941719310758712e-02  2.0729224401694998e-02  1.5868612497975380e-02  2.0013603298412078e-02  1.3487153886753136e-03  1.3379462866527784e-03  1.4486548498810059e-02  1.1606271346901505e-02  5.4987495937629718e-03  2.4362508575817034e-02  2.1963105700647623e-02  1.7365744873603258e-02  1.9262973147255134e-03  2.4732531349707484e-02  6.8804778103424150e-03  6.8751062715031114e-03  1.8689872080427387e-02  1.0280790410772065e-02  4.4617467477288657e-03  2.1047385205102315e-02  7.9196170476216014e-03  2.4305149645458862e-02  2.2862760664386483e-02  2.2755554535453078e-02  2.4664032161378090e-02  9.5009215178618132e-04  4.8065319858309075e-03  2.1388886629650997e-02  6.1900748056740859e-03  7.5735813584687358e-03  6.1901379013628993e-03  7.7918258258720201e-04  4.7579044922042100e-03  1.8632155858923576e-02  1.8286764194733209e-02  1.0328118170919852e-02  1.0852484759010704e-02  2.2422606942587811e-02  3.3166259730130113e-02  3.2694359736618057e-02  2.2478786448295703e-02  1.9261679444683894e-02  9.7074909449100695e-03  1.4481474922091349e-02  1.3866742019957893e-02  1.3100630464517801e-02  1.5106550387549537e-02  1.5866545345952367e-02  8.9564356107361930e-03  2.0015873630960773e-02  1.2355448497934829e-02  1.3107252066685462e-02  1.7248715490283503e-02  1.6617169150110130e-02  2.6751585437781947e-03  3.4244692680867740e-03  2.6748325463717441e-03  3.4152783541888544e-03  1.2355780129897333e-02  1.7251197503447224e-02  1.6905504598839140e-02  1.1720752742816523e-02  1.1726855996679155e-02  2.0550407059728177e-03  2.0438247602903021e-03  9.5473111123718368e-03  3.9624728225395233e-03  8.3800462365260057e-03  2.4394635121589559e-02  2.5852545637880135e-02  2.0363235452168220e-02  1.9424363369637820e-02  2.0699904088928703e-02  1.3449219099353461e-02  2.3082491721921096e-02  8.6107398710527690e-03  3.7699403456067067e-03  2.5280024484002950e-02  2.4077642782345469e-02  1.6130884027165834e-02  2.3254436215003345e-02  1.5235007652079843e-02  8.9504914884638610e-03  1.6364172690768704e-03  1.7957150135879875e-02  1.5298462305091355e-03  1.1014013554605420e-02  5.1532520951953834e-03  2.1758922115315903e-02  7.5816080806385628e-03  7.2287117419582800e-03  2.3815288237425809e-02  2.3562319061251686e-02  2.5620161703682809e-02  2.5073907693412525e-02  1.0338592957765810e-02  1.8620950337859980e-02  1.4486426490580016e-02  1.4141621157389404e-02  1.1690379772056158e-02  -2.6542661563253316e-06  6.5810221542705058e-04  1.7604641605034017e-02  4.8022473128061655e-03  2.0020681011805111e-02  1.5951147728213898e-02  1.3200962389897177e-02  -2.4346501720102477e-06  1.5860017226110499e-02  2.2360496005668730e-02  2.1416663556294780e-02  2.1443730583494199e-02  5.4245029305454960e-03  1.9926853321284535e-02  6.1903807713755282e-03  6.8822543805108832e-03  7.5733459966422414e-03  6.1863713016304667e-03  6.1780149221149104e-03  6.6091792721143970e-04  1.1693746919882597e-02  1.7277963494064772e-02  3.3038313196595550e-03  2.2006806072204423e-02  1.3717645575192939e-02  1.4486407239771515e-02  1.6469645702845547e-02  1.3243675746546070e-03  1.7976552262232937e-02  1.0122063443304390e-02  1.8848828867156768e-02  9.3011631379128507e-03  8.9635383541524054e-03  3.1780271009579199e-03  1.2858696584449996e-02  2.1310845897341323e-03  1.0276576779754340e-02  1.4831505333896695e-02  4.4618452432069579e-03  2.3869591084373525e-03  1.8976950639950502e-02  4.6347257828820423e-03  8.4377406157594443e-03  4.9802427969347926e-03  4.0058652553285187e-03  7.7481672306564291e-03  2.1535665471160863e-02  2.1068178620752893e-02  2.0531100900713226e-02  7.9193209394203580e-03  7.4010033940638768e-03  1.1055145566302316e-02  2.2583184219814756e-02  2.2536897602780628e-02  9.7508607722759828e-03  1.9219506845268935e-02  2.1304178928448986e-03  1.8333661506538788e-02  1.0636238871643435e-02  1.0005062783069577e-03  4.6764054060734141e-04  5.6569983418649290e-04  1.5626823018041528e-02  1.2701125777260748e-02  2.0358092783099527e-02  2.0879754047783694e-02  1.5326598863248490e-02  1.5522675917343041e-02  2.3815218420982089e-02  5.6715225501978335e-03  2.3569800024846176e-02  2.4222356405286357e-02  2.4022875313647343e-02  2.3128095206318144e-02  2.3300314743276554e-02  2.4324903911617800e-02  2.4410562283099964e-02  6.7092173970501982e-03  2.1158107653280831e-02  1.9672044711643539e-02  9.2658864741195987e-03  1.2067691845772237e-02  1.2132577659023104e-02  1.6836647145232406e-02  9.9917447046388164e-04  8.6669821447165167e-03  1.8772339279498885e-02  2.4606741764443716e-03  1.2141070042582545e-02  2.4789957387239558e-02  2.5009063693911811e-02  1.0683659186763349e-02  5.8071052630407410e-03  5.8444432086491652e-03  7.2279062473131926e-03  5.8394222907675770e-03  2.1695263232048102e-02  2.6813756841881278e-02  2.7275968979984022e-02  6.5363123912130670e-03  6.5358866810782002e-03  7.9222795722632688e-03  7.2277467614526459e-03  6.5363083049589776e-03  4.0574743021474157e-04  9.0564450920908555e-03  1.1369681625762225e-02  2.9423573285057283e-03  1.2622794051569306e-02  1.4043618626692908e-02  1.4930202872896698e-02  1.7681357299899558e-02  1.1372299481258735e-02  1.1204457280535490e-02  1.0154732709614723e-02  3.6979556001631420e-03  1.1318949222133284e-02  1.9912165852693890e-02  1.5576137270551535e-02  1.5695254454469527e-02  3.7384907533814598e-04  8.0149355467927577e-03  4.9916546992623241e-03  1.6357760382473920e-02  1.9492492371564862e-02  1.6879477201302385e-02  1.3456842453701255e-02  2.2274824466411269e-02  2.2798814025536476e-02  2.2862879258609428e-02  2.2152572254845963e-02  1.0615879184187410e-02  1.3476246987560470e-02  1.4301377204835842e-02  1.4873217192971808e-02  1.9679959364720178e-02  9.8395442058465364e-03  1.6938086645056527e-03  2.8599462503542754e-03  1.2797984826704844e-02  1.6269329870339817e-02  2.5665172628319458e-03  1.1202907457341987e-02  4.4641438160166261e-03  2.4310903544560562e-02  2.2431541503056002e-02  2.2201048686253999e-02  2.2730531298621605e-02  2.3118854518653892e-02  2.3946706644378229e-02  2.3303574189672306e-02  5.1282998077151884e-03  2.1716432958247735e-02  3.5830601550326650e-04  1.3585780378482954e-02  3.0899074413398694e-03  4.2149630528827888e-03  8.2074060875856510e-03  5.5230720648497969e-03  9.3677849147434031e-03  1.8532488344419618e-02  1.8018133265796456e-02  1.8481026780579581e-02  2.2505205785557595e-02  2.5468103965948369e-02  2.4502603497391931e-02  3.2429535214989957e-03  2.2463492599143722e-02  2.0253483164254762e-02  1.9246810075891678e-02  5.1582893096272309e-03  2.1932982906334706e-03  1.4792991178930759e-02  1.2807797302495323e-02  2.4814388161710867e-02  2.4485262382728069e-02  1.5872369615676279e-03  2.2555902615202378e-02  1.1873709177867757e-02  2.3695972693119492e-02  2.3677634003667198e-02  9.9356906330234016e-03  9.7235961269274713e-03  1.9035244527734235e-02  9.2478272021414478e-03  1.0584168068644180e-02  1.8386625615858288e-02  1.1339022654796794e-02  1.7692664373497511e-02  1.1873670089121338e-02  8.6755781150123085e-03  1.2454531273244675e-02  1.9627564965253249e-02  1.7647169607803364e-02  1.7284161706552489e-02  1.6541535252356337e-02  1.6906611037712977e-02  1.6218458121514429e-02  1.7219170237234346e-02  4.3630880859247528e-03  3.7077736821440345e-03  1.9607468318121276e-03  2.4085897547965675e-02  2.4137068015397840e-02  2.3340445918245394e-02  1.5231769803045834e-02  2.4979759426439756e-02  1.6091773093682236e-02  1.3822079037447301e-02  3.9751116931837534e-03  4.8074838481492153e-03  8.2651634864415180e-03  4.9802189308426744e-03  3.5301519728485383e-03  2.0768501627917810e-02  1.3766493180909056e-02  1.3441398017491462e-02  1.3210050026414745e-02  2.1347466024157241e-02  2.1815609849843834e-02  6.9398994567690386e-03  5.3259394444116863e-03  7.4012803405877096e-03  8.8998190700692870e-03  1.3361711735232621e-02  2.0363352952741453e-02  6.0177827526360647e-03  2.0618675598373170e-02  2.0078017908620977e-02  2.1536522347518454e-02  3.7227528677547701e-03  7.5742282881308114e-03  9.3488550730948337e-04  1.4107084257064511e-02  2.1047248781948323e-02  4.0815564287167731e-03  8.3030217196757069e-03  1.1474770219946210e-03  1.5206224212348247e-03  1.6545321546776442e-03  2.4222672476718398e-02  8.6110039588010619e-03  1.2495923141935723e-03  1.6818432136790960e-03  1.4048623472870253e-03  1.8973374357750587e-02  9.9925267039008055e-03  2.2697664123880499e-02  1.4657012760555583e-02  4.0895105671764709e-03  2.1843358678660909e-02  2.1049793847859027e-02  2.1228973904293715e-02  1.6994537209125353e-02  1.8286907630515974e-02  1.6461180834051875e-02  7.9220823747435647e-03  5.8444845790368155e-03  4.4671460010435645e-03  6.5385981417812869e-03  1.6980668278974157e-02  1.0479535272317144e-02  2.0556943871926480e-02  1.3109067617287327e-02  2.4508415539957803e-02  2.4438941159042656e-02  2.5869384501397037e-02  3.0730609063380383e-03  1.9004702673987236e-02  1.5043097337311909e-02  2.2768245882556191e-02  2.0859249112259004e-02  1.1548835084900082e-02  1.7596071184829726e-02  2.2334935681838721e-02  1.3114273916519282e-05  1.8037362771709028e-04  6.3758142719082238e-03  7.0432281089132034e-03  3.0803329323831081e-03  1.2757150433813789e-02  4.3324914313534798e-03  1.4424788524168598e-02  1.4453850396068592e-02  1.4148351300800539e-02  1.7923811015231765e-02  1.8327069967955575e-02  7.5818777049987598e-03  1.5954781304941799e-02  1.1571343483277515e-02  1.3240755681865182e-02  1.3129907779806695e-02  1.7357173379277054e-02  3.1858905515130542e-03  1.9840157639298892e-02  1.5920590225079204e-02  1.6273393337775357e-02  1.5870922286361531e-02  1.3536278981900504e-02  2.0204764118030721e-02  5.4610037225873362e-03  5.4616463670533388e-03  5.0910841607890141e-03  2.2969937291718315e-02  8.7290678541737769e-03  2.2382080286487752e-02  1.7617734891729450e-02  1.7182467875019480e-02  3.7673552268365253e-03  2.3906001969162790e-03  9.9874007121765456e-03  1.6217808781975668e-02  3.7732670006993701e-03  1.4138915862525081e-02  6.1903501321007807e-03  5.1491353104353857e-03  5.8455620982728372e-03  8.6156528191048340e-03  9.9513626112932214e-04  1.6901380877292996e-02  9.3006014766383524e-03  1.2066632737910060e-02  1.2756866647433775e-02  9.9654903974333818e-04  2.3860565942087938e-03  4.4619847882268159e-03  9.3012934414723573e-03  1.2069027703494576e-02  2.4240681183879020e-02  -2.3866509474371229e-07  7.5736832303988375e-03  6.1909430484751050e-03  1.9671644472121906e-02  2.0358056867164718e-02  2.1071560952575858e-02  1.8976994244429304e-02  2.3186801847940228e-02  1.9661847210103257e-02  3.0806030622803585e-02  2.4820209916829851e-02  2.6059413829072411e-02  3.0099692546764440e-02  2.5593597730534913e-02  2.1772564787562322e-02  2.1970621417617478e-02  2.3387353274104031e-02  1.4923598158305575e-07  1.7598109404092704e-02  6.1903471497121573e-03  2.5260635873156353e-02  1.5521221033590323e-02  1.5526478270639986e-02  1.8285506666446585e-02  1.4828896974487769e-02  2.6895469238901699e-02  1.6496628186378491e-05  1.4838262889759653e-02  8.5546780108962887e-03  6.5362912369992142e-03  6.8821484252544951e-03  7.2277656119570047e-03  6.8823837726466061e-03  7.2265093674044739e-03  6.5365096883595979e-03  6.5505226441397420e-03  1.0692659305202228e-02  1.0683040632544626e-02  7.2300707974628370e-03  1.9080282781125540e-04  1.2047500813247229e-02  1.8643333028305952e-03  1.0165310188941519e-02  1.2036702429137465e-02  1.0763880307458947e-02  2.1990501941443523e-02  1.6877058369162208e-02  8.0344347423739540e-03  4.8014225938878292e-03  2.9066146225575741e-03  6.5899474853097872e-04  1.1345854284437169e-02  3.6240344454184551e-03  8.0888284990295635e-03  2.3061576641115612e-02  2.2465588613815143e-02  1.4594643611221092e-02  1.4162696982816816e-02  1.8875425330511122e-03  2.3780391948370280e-02  2.2646073709318842e-03  2.5366128675760474e-02  2.3131794215768688e-02  1.5386108837414808e-02  7.7274282857417538e-03  4.1437739222505649e-03  8.3287396335348877e-03  5.7585038159744034e-03  1.2656693686702192e-03  1.8005311701822548e-02  9.3810277924333395e-03  2.2206250942396154e-02  2.4466236554356487e-02  1.9613214448583882e-02  2.9972930481871394e-03  2.8044778819420009e-03  1.2511894417455045e-02  2.2074517221757212e-02  2.1700531676493433e-02  2.2245855961652912e-02  9.9747204540505865e-03  1.3780434307583410e-02  6.5136952565402341e-04  1.4836459004813968e-02  1.6582569994761775e-02  5.8807384315106934e-03  8.0032150633492730e-03  1.7518208614217743e-02  2.8674192145622963e-03  1.8640874575294061e-02  1.0236913266376735e-02  1.0165673560109780e-02  1.8703931929260717e-02  3.4047913607832426e-03  2.0459806809090830e-02  1.0587469571901865e-02  1.2937562540616714e-02  2.0243275762104700e-02  1.3277692993889326e-03  2.3812519786029739e-03  1.0425913508522258e-03  1.8000726201237289e-02  1.8097909127811351e-02  2.1463648587134499e-02  2.7427495908347466e-02  4.6569928036028271e-03  3.4609434403150546e-03  1.2624169697831216e-02  2.1718045182909828e-02  1.4059374490357230e-02  2.3959365021692915e-02  1.4125237282588236e-02  8.9662804011662166e-03  1.6251496150856845e-02  1.5228822827420958e-02  1.8968918922053043e-02  7.1921133347765530e-04  1.1855398042843622e-02  2.1934452452029470e-03  1.0912672848873831e-02  1.9478589367596954e-02  2.6375788954379857e-02  1.2928935640587091e-02  3.2486701298241102e-03  1.6720645221928093e-02  1.8274952954502712e-03  9.5789471785148635e-03  2.1312522477296744e-02  2.2707037242955714e-02  6.2764370517641953e-04  2.8786630067620297e-04  9.4736606445583304e-03  1.4548105616430738e-02  8.6717004911956597e-03  9.2554637228612728e-03  1.2585709120883404e-02  4.2781439742458896e-03  1.7685929433734669e-02  1.9700225396228226e-02  2.3876199884716356e-02  2.3457654633059682e-02  2.3947456496183142e-02  1.9973568510817302e-02  5.3252096993394891e-03  2.2011322148592315e-02  2.0875485835071796e-02  2.1272880303964476e-02  2.1057910203848233e-02  2.9479719131094671e-03  2.4614091584644329e-03  1.2888921735866614e-02  9.8092261635839648e-03  8.9617115174953563e-03  1.4634096529453262e-02  1.3447300491574322e-02  9.1287362232256170e-03  1.2408814401319700e-02  1.2389989369810193e-02  2.4330138149085349e-02  1.9162953839345527e-02  1.3686942733736893e-02  3.7083599451803203e-03  1.6212459241020705e-02  1.5666998859209014e-02  1.3078880376096585e-02  1.5420951669501432e-02  1.8113495513485841e-02  2.3413652748441257e-02  2.2585511169512646e-02  1.4314360016861557e-02  2.4421472946388346e-02  1.5053394857590026e-02  1.5003740512574757e-02  2.3682177042494725e-02  2.3487229425856598e-02  2.3449731582172600e-02  1.0901855229720751e-02  1.0973340388752662e-02  1.8539190899419349e-02  1.4767745112420698e-02  1.1588319493471224e-02  2.4142452399042828e-02  2.3288085936772354e-02  1.3494505829714681e-02  2.0878992768074440e-02  2.2656737051875341e-02  2.2672907538189013e-02  1.6911954457107874e-03  9.5441003019601633e-03  1.7142658855681867e-02  9.1894796880954499e-04  1.1732008590923787e-03  8.2101449437312990e-04  1.1331474679489603e-02  1.1062708484019487e-02  1.0882114530893531e-02  9.5047475207189081e-03  4.5946046645466334e-03  4.6348202124650668e-03  2.2510142335895912e-02  9.6500869421764623e-03  1.9375503739579397e-02  1.8931817512154107e-02  1.0007402168955334e-02  2.2138417003849942e-03  2.6352068799411184e-03  2.6128548651523152e-03  2.3462513935837942e-03  1.8804353490658985e-02  1.9224525123195554e-02  1.9149223693491202e-02  1.2923220871699344e-02  5.7445642894312261e-03  6.7093294180239132e-03  5.9477580339554496e-03  2.0776679761019805e-02  4.6349156171653812e-03  5.5851828837730775e-03  7.7477552715985790e-03  4.8937582121000595e-03  4.5482537961397023e-03  8.6987225795984204e-03  2.1558972356811684e-02  2.0534236349780546e-02  7.3996968192617521e-03  2.1253362257708127e-02  5.0667014488117662e-03  5.2394805203392712e-03  5.4122348993863451e-03  7.4884993320996013e-03  7.2282140562654629e-03  6.9550012020306688e-03  6.4636281582757769e-03  7.1604034957845923e-03  6.7997940558141125e-03  1.5905114549872540e-03  2.2862486946797605e-04  1.0412156587572536e-02  8.0934630837120290e-03  1.9266356426753640e-03  1.2222115131106390e-02  1.5595039758079406e-02  1.5134248645524134e-02  2.0600784018996166e-02  1.5657577664380695e-02  1.7449900314173341e-02  1.8191936391818327e-02  1.3816920905346360e-02  2.1134616588101309e-02  2.0087804137852154e-02  1.7127661266713604e-03  4.2896117277168638e-03  1.6834610777139967e-02  1.6571673706475474e-02  1.4659326346179018e-02  7.3754400760187380e-04  4.6656404826675088e-04  1.9646273051647707e-04  1.0973905343865357e-02  2.0346371376607313e-02  1.1873674472157364e-02  1.2246352830644193e-02  1.2157265881530727e-02  2.4737017138870294e-03  1.3937678684266123e-02  1.1606419394758693e-02  1.2315612173967951e-02  1.0437495907155567e-02  1.8461433800514020e-04  1.5395762508558935e-02  1.5696044669309763e-02  1.5866468351850731e-02  2.4695152015647859e-02  2.2688780035076732e-02  8.0924212080723517e-03  7.8265252267538023e-03  1.9500496095009258e-03  1.8974832510568446e-02  1.4033047764329126e-02  1.8748244613909830e-02  1.2626116456734995e-03  2.3921700559206505e-02  1.7769399746275141e-02  1.6737415725232890e-02  9.9142711883409215e-03  2.3810900100539861e-02  1.1451755817114117e-02  1.1300814232076156e-02  1.1125102173633364e-02  2.0805234957397580e-02  2.0183957397958707e-02  2.4013315709704230e-02  1.8234116665024169e-02  1.9961915108008418e-02  1.5350559263630714e-02  1.0418042677291862e-02  2.2133574518824980e-03  8.8873707903021765e-03  1.0683917895979651e-03  1.8272575411738622e-02  2.3542897749980637e-02  2.4083012704726906e-02  2.2922729171646582e-02  5.7580683243058069e-03  2.4220256183837156e-02  2.3341554519535072e-02  2.2632397059213088e-02  2.2479260243056850e-02  2.4685391419071421e-02  2.2706701451134716e-02  2.4525393910803366e-02  1.7247229234282898e-02  4.2509620081193156e-03  1.9478632625612082e-02  3.4506503610044589e-03  2.4626031044132253e-02  1.8757109661749798e-02  1.8531848051949629e-02  1.1899621035486739e-02  1.7092121708362384e-02  1.7051858473581958e-02  1.6732140454622280e-02  2.7296124246142133e-03  1.4611274154602723e-03  1.8251846361402049e-02  2.6375242027416439e-04  5.2839220780728563e-04  5.9738262747501274e-04  1.2583330375297954e-02  1.2580871051694795e-02  2.5338993044901201e-02  1.3569097586593241e-02  2.0916258039741079e-02  1.2388158028077051e-02  1.9439582044467715e-02  1.9846046126816976e-02  3.0727999010352306e-03  2.9056838078314030e-03  2.4497460392083437e-02  1.5933718239560194e-02  2.0303539004127288e-02  1.0747263983231458e-02  9.0558155069409996e-03  9.4099681182358928e-03  8.0710200512816035e-04  7.7733563488485424e-03  1.1816067128770636e-02  1.1893114020239896e-02  9.9093446381337442e-03  1.1721579762198088e-03  1.5439768883718362e-02  2.1291395809742698e-02  1.8492498735671860e-02  1.5005387278102095e-02  1.3968439823531315e-02  1.4291759496709942e-02  2.2298181774617318e-02  2.2454234060536631e-02  2.2891280354356083e-02  8.7573618041705825e-03  8.461