<?xml version="1.0"?>
<VTKFile type="UnstructuredGrid"  version="0.1"  >
<UnstructuredGrid>
<Piece  NumberOfPoints="1079" NumberOfCells="1944">
<Points>
<DataArray  type="Float64"  NumberOfComponents="3"  format="ascii">0.08500000000000001 0.02 0  0.005 0.02 0  0.005 0.03 0  0 0.03 0  0 0 0  0.005 0 0  0.005 0.01 0  0.08500000000000001 0.01 0  0 0.015 0  0 0.0075 0  0 0.0225 0  0.04500000000000001 0.02 0  0.04500000000000001 0.01 0  0.025 0.01 0  0.025 0.02 0  0.065 0.02 0  0.065 0.01 0  0.035 0.02 0  0.035 0.01 0  0.07500000000000001 0.02 0  0.07500000000000001 0.01 0  0.015 0.02 0  0.015 0.01 0  0.05500000000000001 0.01 0  0.05500000000000001 0.02 0  0.07000000000000001 0.01 0  0.07000000000000001 0.02 0  0.05 0.01 0  0.03 0.01 0  0.03 0.02 0  0.04000000000000001 0.01 0  0.01 0.01 0  0.02 0.02 0  0.06 0.015 0  0.08500000000000001 0.015 0  0.05 0.02 0  0.07250000000000001 0.015 0  0.04000000000000001 0.02 0  0.03750000000000001 0.015 0  0.0525 0.015 0  0.02 0.01 0  0.01 0.02 0  0.0275 0.015 0  0.0125 0.015 0  0.08000000000000002 0.01 0  0.08000000000000002 0.02 0  0.0325 0.014375 0  0.04291666666666667 0.015 0  0.065 0.015 0  0.005 0.005 0  0.005 0.015 0  0.02208333333333334 0.015 0  0.07791666666666668 0.015 0  0.005 0.025 0  0.06 0.01 0  0.06 0.02 0  0.01729166666666667 0.01572916666666667 0  0.04770833333333334 0.01427083333333334 0  0.06875000000000001 0.01625 0  0.008750000000000001 0.01625 0  0.05625000000000001 0.01625 0  0 0.00375 0  0 0.01875 0  0 0.01125 0  0 0.02625 0  0.08145833333333334 0.01354166666666667 0  0.0675 0.01 0  0.0075 0.0125 0  0.0625 0.0175 0  0.0575 0.0125 0  0.0625 0.0125 0  0.08207465277777778 0.01707465277777778 0  0.06767857142857144 0.01321428571428571 0  0.0175 0.01 0  0.01875 0.01291382575757576 0  0.0475 0.02 0  0.04564168086314595 0.01679860519591141 0  0.00296875 0.0125 0  0.0025 0.03 0  0.0025 0 0  0.00296875 0.0175 0  0.01521990740740741 0.0132349537037037 0  0.0497800925925926 0.0167650462962963 0  0.0325 0.02 0  0.03474264705882353 0.01674632352941176 0  0.03750000000000001 0.02 0  0.03025735294117647 0.01674632352941176 0  0.0275 0.02 0  0.0525 0.02 0  0.0125 0.01 0  0.04020833333333334 0.01322916666666667 0  0.03750000000000001 0.01 0  0.0225 0.02 0  0.02479166666666667 0.01677083333333333 0  0.07520833333333335 0.01322916666666667 0  0.07250000000000001 0.01 0  0.07520833333333335 0.01677083333333334 0  0.07250000000000001 0.02 0  0.04020833333333334 0.01677083333333333 0  0.0225 0.01 0  0.02375 0.01262152777777778 0  0.04250000000000001 0.02 0  0.04250000000000001 0.01 0  0.07750000000000001 0.01 0  0.07750000000000001 0.02 0  0.05036151960784314 0.01294424019607843 0  0.0705560064935065 0.01284699675324675 0  0.05458333333333334 0.01291666666666666 0  0.0021875 0.024375 0  0.005 0.0275 0  0.01125 0.0175 0  0.01463848039215686 0.01705575980392157 0  0.01 0.01375 0  0.03625 0.0125 0  0.0021875 0.009375 0  0.05375000000000001 0.0175 0  0.07125000000000001 0.0175 0  0.005 0.0025 0  0.0021875 0.005625 0  0.02655220103578155 0.01234889948210923 0  0.002187499999999999 0.020625 0  0.02979166666666667 0.01302083333333333 0  0.0525 0.01 0  0.07895833333333334 0.0125 0  0.01994277885235332 0.01704213007736944 0  0.07934656179076068 0.01733823814273861 0  0.04505722114764669 0.01295786992263056 0  0.06625 0.0175 0  0.006250000000000001 0.0175 0  0.05750000000000001 0.02 0  0.05875000000000001 0.0175 0  0.005 0.0225 0  0.005 0.0075 0  0.002375 0.027375 0  0.002375 0.002625000000000001 0  0.0475 0.01 0  0.0175 0.02 0  0.0325 0.01 0  0.03375 0.0121875 0  0.04261299435028249 0.01749205508474576 0  0.08500000000000001 0.0125 0  0.08250000000000002 0.01 0  0.02121963399965531 0.01224824108143494 0  0.0675 0.02 0  0.0125 0.02 0  0.02720152243589744 0.0175 0  0.03715165441176471 0.0175 0  0.08500000000000001 0.0175 0  0.0275 0.01 0  0.0025 0.0149560546875 0  0.0075 0.01 0  0.0075 0.02 0  0.06526785714285716 0.0125 0  0.01281031447005516 0.0125 0  0.0625 0.015 0  0.06 0.0125 0  0.05750000000000001 0.01 0  0.0625 0.02 0  0.0625 0.01 0  0.08250000000000002 0.02 0  0.04260103740101855 0.01252623201412851 0  0.02240052247582197 0.01750164767101344 0  0.07293583459427785 0.01238479732953041 0  0.005234374999999999 0.012265625 0  0.03528131980640358 0.01454684009679821 0  0.0325 0.01760027210036557 0  0.02532593822924343 0.01428227733767297 0  0.08009952069819683 0.01527145502895417 0  0.01987282359856536 0.01482587683689801 0  0.04828232595121382 0.01210233572595705 0  0.01671767404878618 0.01789766427404295 0  0.05125 0.01829007549029352 0  0.05247215456215357 0.01288882122882024 0  0.07338729919678716 0.01799385040160642 0  0.03838729919678716 0.01200614959839357 0  0.07717482110586968 0.01780301674207099 0  0.04771860040890012 0.01773306039388322 0  0.03125 0.01160380747126437 0  0.06875000000000001 0.01154265873015873 0  0.07625000000000001 0.01154065860215054 0  0.01625 0.01153997817696946 0  0.068125 0.018125 0  0.05437500000000001 0.015625 0  0.066875 0.015625 0  0.07039794950204951 0.01494384850614853 0  0.05687500000000001 0.018125 0  0.006875 0.015625 0  0.008749999999999999 0.01833333333333333 0  0.010625 0.015625 0  0.05625 0.01416666666666667 0  0.05812500000000001 0.015625 0  0.0449088595298192 0.01494528408816316 0  0 0.016875 0  0 0.013125 0  0.04962452342047931 0.01478673066448802 0  0.0153754765795207 0.01521326933551198 0  0.0771774565913315 0.01322498191305479 0  0.01857756431135545 0.01840228599899994 0  0.04642243568864456 0.01159771400100006 0  0.08125000000000002 0.01155637254901961 0  0.08317650804863432 0.0118234919513657 0  0.08288217288011697 0.01511353252923977 0  0.02837253504384828 0.0117177464035174 0  0.03896057962520807 0.01831163685754031 0  0.01125 0.0114244162490927 0  0.00935910490099115 0.0119067901980177 0  0.02946078431372549 0.01495404411764706 0  0.02875 0.0185829434466942 0  0.002968749999999999 0.0225 0  0.064375 0.016875 0  0.00296875 0.0075 0  0 0.001875 0  0 0.005625 0  0 0.009375 0  0 0.020625 0  0 0.024375 0  0 0.028125 0  0.06062500000000001 0.01812500000000001 0  0.008303571428571429 0.01446428571428572 0  0.01375 0.01865917058160413 0  0.05137790313978056 0.01143372888932909 0  0.04125000000000001 0.01131513063942604 0  0.04101690263896279 0.01844430285842771 0  0.02399563533148224 0.01844349395710867 0  0.08125000000000002 0.01868815426145731 0  0.05354684380692146 0.01145463537600848 0  0.01699195823639423 0.01315138909884649 0  0.07598357371794873 0.015 0  0.04098357371794872 0.015 0  0.003744047619047619 0.00375 0  0.003344630281690141 0.02580853873239437 0  0.04625 0.0187354532243972 0  0.06388392857142858 0.01138392857142858 0  0.06375 0.01375 0  0.05875 0.01375 0  0.06375 0.02 0  0.00622802734375 0.01372802734375 0  0.003630681818181818 0.001369318181818182 0  0.003630681818181818 0.02863068181818182 0  0.06125 0.01625 0  0.06125 0.01125 0  0.05625000000000001 0.01 0  0.05875 0.01125 0  0.06125 0.01375 0  0.08337864763241221 0.0183786476324122 0  0.05213634138653413 0.01674432930673294 0  0.04375000000000001 0.01 0  0.07424178685897437 0.01529258578431373 0  0.03924178685897436 0.01529258578431372 0  0.03410139294454583 0.01843406022904556 0  0.03089860705545417 0.01843406022904556 0  0.02094160484316717 0.01850229584291991 0  0.04375000000000001 0.02 0  0.04437042160883325 0.01820701498672512 0  0.04816311705429156 0.01600061344661149 0  0.07151224904251052 0.0114127410511319 0  0.04395528506193162 0.01639387970349481 0  0.0128750358694518 0.0167500179347259 0  0.02855808448399799 0.01642839899839741 0  0.02812690373330794 0.01340955081400569 0  0.08358500641945087 0.01351822349116885 0  0.05590277777777778 0.01173611111111111 0  0.06683110430364615 0.01164926404662283 0  0.02573206694914602 0.01842532451809762 0  0.01438126661842046 0.01166701193099454 0  0.02384283211216029 0.01526549696571563 0  0.03625 0.02 0  0.004609375000000001 0.0182421875 0  0.003398437500000001 0.01943359375 0  0.001728307845744682 0.01894718251329787 0  0.004377805359085963 0.01656966216675735 0  0.04649673309852075 0.0153889662370871 0  0.03615513600614297 0.01592654988586041 0  0.03316985071935832 0.01598763605018279 0  0.03110111603888768 0.01529816275177977 0  0.01370614113484869 0.0138804542047638 0  0.04930041102671841 0.01842260568883502 0  0.07875000000000001 0.02 0  0.0745395359848485 0.01165101111925709 0  0.03860755698543604 0.01373741558556884 0  0.02605038706571737 0.01573944002207753 0  0.07559826163500957 0.01841729376139847 0  0.04437500000000001 0.01149157931286774 0  0.06874116707361365 0.01454618473032123 0  0.003761917372881356 0.0239307468220339 0  0.003984374999999999 0.01125 0  0.003768503289473684 0.01392539576480263 0  0.001796875 0.0111328125 0  0.003761917372881356 0.008930746822033899 0  0.005 0.00625 0  0.003761917372881355 0.0210692531779661 0  0.06633928571428571 0.01410714285714285 0  0.006484375 0.01125 0  0.08364120589325512 0.01657288979763549 0  0.03576267476503373 0.0184116442851204 0  0.07370875846579374 0.0137848203678562 0  0.06964285714285715 0.01758928571428571 0  0.05520833333333334 0.01833333333333333 0  0.06491071428571429 0.01839285714285714 0  0.0510098951944636 0.01559941474766356 0  0.01786087179886325 0.0115702210443714 0  0.01972197383235524 0.01160576093166696 0  0.01804697593127788 0.01433503795474974 0  0.001644074528704677 0.01642892723865279 0  0.00125 0.03 0  0.001497685185185185 0.001267746913580247 0  0.07315451164202422 0.01643443118912983 0  0.001233906745910645 0.0140625 0  0.01162635071030191 0.01362229857939618 0  0.01528023503083844 0.01845923557506155 0  0.06625 0.02 0  0.07695012019230771 0.01624387078484555 0  0.03139091092855769 0.01320776147621796 0  0.03857339107781042 0.01675295051810485 0  0.001754993120977522 0.02590789105493891 0  0.002288757784711197 0.00412546923654445 0  0.07914382119690884 0.01404430049871201 0  0.001391810103286306 0.01257390899021902 0  0.0419501201923077 0.01614675005432421 0  0.001484375 0.007018229166666667 0  0.001484375 0.02201822916666666 0  0.048
[...]
<PointData  Scalars="pressure"> 
<DataArray  type="Float64"  Name="pressure"  format="ascii">-1.6072004002018163e-04  4.0983381209529358e-02  2.6091458681774465e-02  1.3425634114349624e-02  1.5709032547583556e-02  6.4592061587036200e-03  4.0797169441903459e-02  -1.5463758329634466e-04  4.0785306393875710e-02  4.2773793836185944e-02  4.3221090468447458e-02  2.0017273880633523e-02  2.0019164651469919e-02  3.0050618984329158e-02  3.0050363413865629e-02  9.9747558356806550e-03  9.9801693407845123e-03  2.5032968025544257e-02  2.5030004431804555e-02  4.9487362019903286e-03  4.9645532905823186e-03  3.5071010573957506e-02  3.5058313339333798e-02  1.4980274372661468e-02  1.4991902348602383e-02  7.4711608494137599e-03  7.4709295312345003e-03  1.7509336075973679e-02  2.7539177558760976e-02  2.7540561469292731e-02  2.2527425390685495e-02  3.7573177645758654e-02  3.2555808065421750e-02  1.2487462333937049e-02  -2.0179870177176520e-19  1.7503165651045420e-02  6.2131300293870022e-03  2.2535542338381922e-02  2.3777373071657570e-02  1.6250257646811438e-02  3.2554771672752440e-02  3.7611785870104775e-02  2.8793142537191192e-02  3.6314139095492123e-02  2.4471173400327961e-03  2.4275654989719675e-03  2.6285419153010921e-02  2.1059219954376117e-02  9.9772609829819076e-03  4.4219475593861329e-02  3.9851719875374420e-02  3.1509655663504312e-02  3.4951298671134002e-03  4.4848579157694690e-02  1.2484388454263910e-02  1.2474626027193403e-02  3.3912238099491246e-02  1.8654165269810730e-02  8.0956428842258264e-03  3.8189475512199346e-02  1.4369870631446440e-02  4.4138033902518498e-02  4.1478149392769198e-02  4.1296026373912477e-02  4.4744494076010652e-02  1.7238423142994621e-03  8.7212532080352644e-03  3.8810830591298681e-02  1.1231652945061749e-02  1.3741996655639774e-02  1.1231767835692342e-02  1.4137325393452989e-03  8.6330151168660281e-03  3.3807590539770754e-02  3.3180850488690877e-02  1.8740021598688594e-02  1.9691490883639570e-02  4.0689183586496265e-02  5.9592012072217683e-02  5.8787559527544657e-02  4.0783968281135688e-02  3.4949859082550140e-02  1.7613927466389130e-02  2.6276198294216010e-02  2.5160794290439270e-02  2.3770688037021745e-02  2.7410397851200620e-02  2.8789386469329600e-02  1.6251155233791982e-02  3.6318564572568164e-02  2.2418585632680385e-02  2.3782723976140618e-02  3.1297294620219282e-02  3.0151379179958266e-02  4.8539192613801891e-03  6.2135079531559362e-03  4.8533281853231133e-03  6.1968430742053750e-03  2.2419186502482896e-02  3.1301820320312888e-02  3.0674565844666709e-02  2.1266931463133538e-02  2.1278006102097478e-02  3.7287071319324454e-03  3.7083712696643523e-03  1.7323284019605895e-02  7.1897216818206560e-03  1.5205308391999749e-02  4.4246355650036970e-02  4.6843917696875494e-02  3.6948163299403640e-02  3.5244869231386436e-02  3.7559726444365338e-02  2.4403208523436304e-02  4.1892492991979939e-02  1.5623898221724225e-02  6.8403736904743915e-03  4.5872161822767613e-02  4.3707205598190829e-02  2.9269029358461287e-02  4.2185007182631039e-02  2.7643481080419439e-02  1.6240370516593442e-02  2.9691457093101500e-03  3.2582730027693213e-02  2.7757766734959510e-03  1.9984581724441366e-02  9.3503637679003219e-03  3.9479125879055783e-02  1.3756560681980024e-02  1.3116235493439309e-02  4.3197015204028036e-02  4.2766043052278789e-02  4.6453591435755691e-02  4.5519817244381255e-02  1.8759046075556000e-02  3.3787128530805913e-02  2.6285210767991406e-02  2.5659556552069598e-02  2.1211832795520399e-02  -4.8130057129898858e-06  1.1938782437505111e-03  3.1943143208286097e-02  8.7134726887913520e-03  3.6326642921251331e-02  2.8942899039287682e-02  2.3952750540408060e-02  -4.4151236340608062e-06  2.8777540395255770e-02  4.0573074096996176e-02  3.8861665989235586e-02  3.8907119267140626e-02  9.8425421306766753e-03  3.6156947315680560e-02  1.1232209247578567e-02  1.2487599712711458e-02  1.3741566345800253e-02  1.1224911446967297e-02  1.1209765510223017e-02  1.1989930934616345e-03  2.1217941929687071e-02  3.1350369204809984e-02  5.9946310358485961e-03  3.9933582616916992e-02  2.4890261742483651e-02  2.6285161734976269e-02  2.9883704625565197e-02  2.4029504044171708e-03  3.2617953394136867e-02  1.8366159016250005e-02  3.4200609463631119e-02  1.6876656537995010e-02  1.6264041913082877e-02  5.7663619368815743e-03  2.3331718969450754e-02  3.8667082213734044e-03  1.8646517039014245e-02  2.6911338256706104e-02  8.0958236377004326e-03  4.3309877605584310e-03  3.4433238745631638e-02  8.4095088486964443e-03  1.5309994460078608e-02  9.0364424561726886e-03  7.2684560573299389e-03  1.4058778608966881e-02  3.9075585358328786e-02  3.8226571865976812e-02  3.7253001729943433e-02  1.4369333119598364e-02  1.3428856878934345e-02  2.0059214673339411e-02  4.0974169988967774e-02  4.0896063876664904e-02  1.7692620417124570e-02  3.4873254360669695e-02  3.8654994411469164e-03  3.3265879788265076e-02  1.9299116720039807e-02  1.8152909404986453e-03  8.4843133362074374e-04  1.0263999670056196e-03  2.8354422380122313e-02  2.3045809974753997e-02  3.6939659758207920e-02  3.7886535147378254e-02  2.7809671248263220e-02  2.8165449224288451e-02  4.3197753133277603e-02  1.0290753953504888e-02  4.2780317484522878e-02  4.3969412147179233e-02  4.3611179907227252e-02  4.1975765709195520e-02  4.2268432467714945e-02  4.4124130772741126e-02  4.4277018665984311e-02  1.2173624526229486e-02  3.8391093158114203e-02  3.5694174817547955e-02  1.6812639369307582e-02  2.1896452942684788e-02  2.2014182629522067e-02  3.0549614295100166e-02  1.8128708946034177e-03  1.5725948675568847e-02  3.4061932133995804e-02  4.4647428199474978e-03  2.2029600403903050e-02  4.4992668741448270e-02  4.5347945608529699e-02  1.9385157829108813e-02  1.0536767579767608e-02  1.0604513530385157e-02  1.3114776377083760e-02  1.0595404683754096e-02  3.9366582415704815e-02  4.8631174706515463e-02  4.9381042166047433e-02  1.1859894158832429e-02  1.1859116670173593e-02  1.4374706383700033e-02  1.3114486159741404e-02  1.1859886734584836e-02  7.3612529589054516e-04  1.6432620168427295e-02  2.0629930223674941e-02  5.3387454083371061e-03  2.2903678205535464e-02  2.5481734020856510e-02  2.7090417613450456e-02  3.2082308781411661e-02  2.0634685384576332e-02  2.0330138198013169e-02  1.8425436157766348e-02  6.7097509022094786e-03  2.0537880394671065e-02  3.6129915836609065e-02  2.8262452476816326e-02  2.8478589178985689e-02  6.7830162833723377e-04  1.4542822615173799e-02  9.0571491870678564e-03  2.9680686839828215e-02  3.5368747792109155e-02  3.0627333259254118e-02  2.4417035376277294e-02  4.0413421970079473e-02  4.1361145388495793e-02  4.1478041732982113e-02  4.0193705850284103e-02  1.9262175714530084e-02  2.4452249499485518e-02  2.5949429637527503e-02  2.6987020466661696e-02  3.5708826182112324e-02  1.7853536708457313e-02  3.0732599638239890e-03  5.1892120621727482e-03  2.3221558286357812e-02  2.9520234389171233e-02  4.6567928081203145e-03  2.0327325000331003e-02  8.0999925736664237e-03  4.4091109421884704e-02  4.0706551167286033e-02  4.0284950700456630e-02  4.1250613989306614e-02  4.1958497897039523e-02  4.3464969792805459e-02  4.2272800618324266e-02  9.3050884992343375e-03  3.9406227492841214e-02  6.5009965689644979e-04  2.4650995224689051e-02  5.6064715595351517e-03  7.6478585460776505e-03  1.4892059740964731e-02  1.0021396115892676e-02  1.6997538546620269e-02  3.3626735698035197e-02  3.2693426946486824e-02  3.3533320545926941e-02  4.0833434121359168e-02  4.6115871900487014e-02  4.4559992746441658e-02  5.8841698486753668e-03  4.0761395296890185e-02  3.6749592687218981e-02  3.4922677660920817e-02  9.3594982318281287e-03  3.9795957184671311e-03  2.6841453105112899e-02  2.3239362631659873e-02  4.5009451090246011e-02  4.4450884329538184e-02  2.8799148662463697e-03  4.0931399570460797e-02  2.1544479744164076e-02  4.3011825668930186e-02  4.2950269663412685e-02  1.8027989872893477e-02  1.7643149468585254e-02  3.4538873214043045e-02  1.6779877577236986e-02  1.9204637025110372e-02  3.3361993172944950e-02  2.0574303268373818e-02  3.2102837841897644e-02  2.1544408984034705e-02  1.5741545020326691e-02  2.2598370261159868e-02  3.5613635037104359e-02  3.2020301692648259e-02  3.1361631801768076e-02  3.0014150719328541e-02  3.0676577681407278e-02  2.9427924430547234e-02  3.1243710760307231e-02  7.9166298580111462e-03  6.7275755536224417e-03  3.5576208418966384e-03  4.3689496441221602e-02  4.3811417749460797e-02  4.2363095466021454e-02  2.7637599191399357e-02  4.5360173870950558e-02  2.9198063210353706e-02  2.5079752799681023e-02  7.2126494962385934e-03  8.7229752310503689e-03  1.4996857590571495e-02  9.0363933221490004e-03  6.4052768438063439e-03  3.7683310444848926e-02  2.4978883329953169e-02  2.4389012372043665e-02  2.3969242468808862e-02  3.8733313208459817e-02  3.9580504025568827e-02  1.2592193183327516e-02  9.6637013656849843e-03  1.3429355560129004e-02  1.6148427069810230e-02  2.4244427818449859e-02  3.6948268290551062e-02  1.0919033199058721e-02  3.7411361010753943e-02  3.6430684184279367e-02  3.9075459676520416e-02  6.7547547628803821e-03  1.3743169803031141e-02  1.6962556124510439e-03  2.5596889506627595e-02  3.8190336280426646e-02  7.4057993304777088e-03  1.5065549757277814e-02  2.0819800030568323e-03  2.7590293012776843e-03  3.0020197289558829e-03  4.3978326493803607e-02  1.5624376908091486e-02  2.2672659603256776e-03  3.0515739122640691e-03  2.5489914162988218e-03  3.4426552611479457e-02  1.8131120222287508e-02  4.1180292518905294e-02  2.6594721937615449e-02  7.4202283007475528e-03  3.9633230438864069e-02  3.8195387526443199e-02  3.8520705101962545e-02  3.0836103393437817e-02  3.3181126784265193e-02  2.9868346947321413e-02  1.4374357251619372e-02  1.0604588834858829e-02  8.1054474690814386e-03  1.1864062523194633e-02  3.0810945670607399e-02  1.9014781579285475e-02  3.7300481786245107e-02  2.3786011305443819e-02  4.4487493748720131e-02  4.4380469009248108e-02  4.6880816181107773e-02  5.5759065187603934e-03  3.4483535018035610e-02  2.7295264529363775e-02  4.1319746450502598e-02  3.7848525805347408e-02  2.0955000858100887e-02  3.1927597400981889e-02  4.0524988284122897e-02  2.3797598920540569e-05  3.2702224082548022e-04  1.1568669666130368e-02  1.2779675897167012e-02  5.5891001835222318e-03  2.3147464692795022e-02  7.8611100949455767e-03  2.6173357642354057e-02  2.6226091739816489e-02  2.5671759080328142e-02  3.2522271219656257e-02  3.3253950456578599e-02  1.3757049713494103e-02  2.8949489982321171e-02  2.0995838642055467e-02  2.4024948316864331e-02  2.3823824762542793e-02  3.1494097367366525e-02  5.7806271294820943e-03  3.5999671508868090e-02  2.8887454058997519e-02  2.9527606101590997e-02  2.8797327304759177e-02  2.4561176536303540e-02  3.6660852517882932e-02  9.9087668702354977e-03  9.9099378886321685e-03  9.2375616255983267e-03  4.1687241781381328e-02  1.5838601433686501e-02  4.0614067944732990e-02  3.1966873406045454e-02  3.1177088013457404e-02  6.8356848850498605e-03  4.3376030156289372e-03  1.8121828049917937e-02  2.9426740517821157e-02  6.8464155653565123e-03  2.5654655212231071e-02  1.1232153641349394e-02  9.3428871474503690e-03  1.0606556230091557e-02  1.5632825231962709e-02  1.8055667124053448e-03  3.0667071114828824e-02  1.6875632153359046e-02  2.1894540916637926e-02  2.3146963309039335e-02  1.8081169112403011e-03  4.3293581236408044e-03  8.0960787445650290e-03  1.6876893500922228e-02  2.1898881734695869e-02  4.3964034110730847e-02  -4.3228310327614734e-07  1.3742177541704124e-02  1.1233224027437452e-02  3.5693441326143910e-02  3.6939635996340661e-02  3.8232593155412109e-02  3.4433325724459167e-02  4.2081897458779098e-02  3.5676089794164229e-02  5.5342091432030178e-02  4.5044987776738127e-02  4.7250518533654876e-02  5.4266860255666668e-02  4.6358469761137298e-02  3.9507922997434455e-02  3.9861835877426449e-02  4.2423676258951951e-02  2.7028216121591771e-07  3.1931253479311389e-02  1.1232148108487477e-02  4.5794223048395463e-02  2.8162808622921216e-02  2.8172353675196906e-02  3.3178504786456245e-02  2.6906600142688666e-02  4.8672586676334263e-02  2.9934791196877683e-05  2.6923588724407015e-02  1.5522170902951892e-02  1.1859855828046526e-02  1.2487406231360475e-02  1.3114521851589896e-02  1.2487837859741190e-02  1.3112241365763491e-02  1.1860251984942881e-02  1.1885674166019662e-02  1.9401486433822487e-02  1.9384038208401642e-02  1.3118682439830423e-02  3.4595667619352768e-04  2.1859822130503866e-02  3.3826953171302485e-03  1.8444631232231494e-02  2.1840226980643352e-02  1.9530720613135079e-02  3.9902957547340981e-02  3.0622948336921231e-02  1.4578204569563165e-02  8.7119773241532052e-03  5.2738874149863722e-03  1.1956587050159016e-03  2.0586699218931418e-02  6.5756318221567370e-03  1.4676901025560766e-02  4.1837146041539472e-02  4.0763324819072744e-02  2.6481546519972598e-02  2.5697798056699497e-02  3.4248024413741506e-03  4.3162981680200288e-02  4.1089825620671070e-03  4.6026287974044906e-02  4.1963873059556150e-02  2.7917650554699244e-02  1.4021148069085143e-02  7.5186886011893916e-03  1.5112207688817655e-02  1.0448579616858609e-02  2.2964430558612254e-03  3.2670111472047708e-02  1.7021568109495785e-02  4.0292900664116095e-02  4.4380567406163363e-02  3.5587775751424813e-02  5.4384248022457636e-03  5.0885664129513382e-03  2.2702453340941661e-02  4.0057013454840876e-02  3.9376934583521359e-02  4.0368014498256118e-02  1.8098809418915753e-02  2.5004190651437871e-02  1.1818361139878668e-03  2.6920322398893033e-02  3.0088601344674080e-02  1.0670369917644851e-02  1.4521559261337956e-02  3.1786310382721505e-02  5.2027739295201526e-03  3.3823283916371537e-02  1.8574551308855769e-02  1.8445288064681164e-02  3.3937724625836524e-02  6.1778209189309163e-03  3.7123863004213983e-02  1.9210625249703839e-02  2.3474820869239486e-02  3.6731193570336412e-02  2.4091194612082135e-03  4.3206330938459804e-03  1.8916820789655786e-03  3.2661805998686781e-02  3.2838163780020024e-02  3.8945620318927877e-02  4.9662358237019366e-02  8.4499126118168372e-03  6.2797086245422965e-03  2.2906175073251309e-02  3.9407109476925696e-02  2.5510319390814863e-02  4.3493556033168207e-02  2.5629827758630951e-02  1.6269018864021750e-02  2.9487874019618190e-02  2.7632260204245033e-02  3.4418485390192828e-02  1.3048982218420531e-03  2.1511256858961162e-02  3.9798623237074096e-03  1.9800700620016449e-02  3.5343381553199507e-02  4.7821468075735368e-02  2.3459164281706361e-02  5.8945529630925909e-03  3.0339139564950799e-02  3.3158536449058693e-03  1.7380688635181586e-02  3.8671773050197970e-02  4.1208310277267714e-02  1.1387876035006831e-03  5.2229935032317698e-04  1.7189650549259250e-02  2.6397112824875703e-02  1.5734509728098051e-02  1.6793733658481136e-02  2.2836392298248201e-02  7.7624997662786559e-03  3.2090624251948134e-02  3.5745346791537042e-02  4.3338512470392936e-02  4.2576555777953426e-02  4.3437810305121921e-02  3.6241600119427606e-02  9.6623862117314243e-03  3.9936889481286014e-02  3.7877079627255707e-02  3.8597551091809679e-02  3.8208212200329439e-02  5.3489329362910350e-03  4.4660760529761506e-03  2.3386561034826420e-02  1.7798523605926379e-02  1.6260727444911135e-02  2.6553143667941478e-02  2.4399726724477884e-02  1.6563791839198184e-02  2.2515418266447994e-02  2.2481259993873483e-02  4.4210282471754320e-02  3.4770562745159654e-02  2.5049873119603789e-02  6.7286392876196102e-03  2.9417044915038836e-02  2.8427317997652558e-02  2.3731236932836023e-02  2.7980872755108376e-02  3.2866402289962370e-02  4.2473234019382126e-02  4.0986471510342973e-02  2.5972990305126554e-02  4.4329066471933187e-02  2.7313949586863621e-02  2.7223855024331962e-02  4.2956700616405927e-02  4.2605279142373768e-02  4.2561112686288288e-02  1.9781072081116555e-02  1.9910784939570759e-02  3.3638803267550525e-02  2.6795644078115435e-02  2.1026646661852340e-02  4.3788890733082703e-02  4.2267087594150439e-02  2.4485379020886780e-02  3.7885272469478128e-02  4.1105901371503828e-02  4.1134320370541488e-02  3.0685407158435696e-03  1.7317458298393335e-02  3.1104868969194774e-02  1.6673209592443280e-03  2.1286370606651752e-03  1.4895907836025247e-03  2.0560607588856562e-02  2.0072937495964636e-02  1.9745253645777838e-02  1.7246053568615600e-02  8.3367119573092442e-03  8.4096835290370583e-03  4.0843110595429652e-02  1.7509768938082010e-02  3.5156263684451579e-02  3.4351253574086964e-02  1.8158108680447163e-02  4.0168791005311035e-03  4.7814257192585188e-03  4.7408720694083681e-03  4.2571251478998942e-03  3.4120054684289032e-02  3.4882474287161409e-02  3.4745854580611066e-02  2.3448796785626929e-02  1.0423287824728390e-02  1.2173829373766818e-02  1.0791976091970077e-02  3.7698441522028718e-02  8.4098656508659018e-03  1.0134092217366561e-02  1.4058036685339226e-02  8.8795196207237422e-03  8.2526079569997992e-03  1.5783540255281628e-02  3.9117174194693224e-02  3.7258493275172597e-02  1.3426486391551079e-02  3.8563469704097617e-02  9.1933200129746123e-03  9.5068233689759776e-03  9.8202834004426538e-03  1.3587615975630079e-02  1.3115334149599523e-02  1.2619595974040923e-02  1.1728011921405702e-02  1.2992293707061118e-02  1.2337981989734062e-02  2.8858573700886311e-03  4.1481116619107209e-04  1.8892526578185118e-02  1.4685317564546951e-02  3.4957432673759651e-03  2.2373798347047381e-02  2.8296750929271756e-02  2.7460655990580809e-02  3.7380210375069355e-02  2.8410224977690544e-02  3.1662338735789809e-02  3.3008734881425215e-02  2.5070396773624333e-02  3.8349199707017889e-02  3.6449089182167778e-02  3.1076763583761727e-03  7.7833109727992872e-03  3.0545920539146183e-02  3.0068828477494081e-02  2.6598924268286719e-02  1.3381613287671320e-03  8.4637609599927616e-04  3.5645952998656581e-04  1.9911807646367668e-02  3.6917478543627924e-02  2.1544416988498287e-02  2.2220634002904555e-02  2.2058987259440301e-02  4.4883809761564405e-03  2.5289506766218953e-02  2.1059488518673342e-02  2.2346303984100938e-02  1.8938505260861688e-02  3.3492831259024868e-04  2.7935169717962179e-02  2.8480035825400894e-02  2.8789254269641511e-02  4.4782064242854094e-02  4.1174086337269003e-02  1.4683428933369266e-02  1.4200956692730370e-02  3.5382253091261829e-03  3.4429378238461358e-02  2.5462552166067926e-02  3.4018183164734768e-02  2.2908802778739304e-03  4.3468712525144969e-02  3.2242102556517917e-02  3.0369567619447875e-02  1.7989124749545594e-02  4.3222469544004188e-02  2.0778854402265536e-02  2.0504980004649665e-02  2.0186150293714688e-02  3.7751103138993609e-02  3.6623641430982866e-02  4.3554207013606912e-02  3.3085301092778414e-02  3.6220105902119465e-02  2.7853149193931490e-02  1.8903196003597821e-02  4.0159927369010449e-03  1.6125838813414377e-02  1.9384909886518075e-03  3.3155114758853660e-02  4.2706996218708285e-02  4.3684581206937440e-02  4.1601085865972581e-02  1.0447788646018681e-02  4.3973783252885465e-02  4.2365147768803853e-02  4.1070975008083009e-02  4.0790016667727899e-02  4.4811548502040902e-02  4.1196665134952341e-02  4.4491801567331464e-02  3.1294615008764730e-02  7.7131804993124681e-03  3.5343293525608686e-02  6.2610293352083728e-03  4.4660920057059766e-02  3.4034317200902706e-02  3.3625563853703522e-02  2.1591494935953640e-02  3.1013186102725639e-02  3.0940108217265772e-02  3.0359996361193724e-02  4.9527249769226855e-03  2.6510918818379247e-03  3.3117499851809250e-02  4.7853554223539280e-04  9.5868791920185564e-04  1.0837520620358479e-03  2.2832073086964295e-02  2.2827609890488910e-02  4.5942117128750543e-02  2.4620724191124762e-02  3.7952253620837137e-02  2.2477936251019917e-02  3.5272425604834803e-02  3.6009839673185884e-02  5.5754298253073951e-03  5.2722134688593571e-03  4.4463662725009304e-02  2.8911275912443725e-02  3.6840188053035391e-02  1.9500570688712620e-02  1.6431477436304381e-02  1.7074077170409766e-02  1.4644032741489043e-03  1.4104483200884383e-02  2.1439886228624812e-02  2.1579699473344142e-02  1.7980187689349069e-02  2.1267527487457030e-03  2.8015017193780710e-02  3.8632015618032825e-02  3.3554151235992855e-02  2.7226845086076774e-02  2.5345326599143920e-02  2.5931978189147740e-02  4.0454617942977139e-02  4.0738669271926639e-02  4.1543873011762024e-02  1.5889943916852712e-02  1.535