<?xml version="1.0"?>
<VTKFile type="UnstructuredGrid"  version="0.1"  >
<UnstructuredGrid>
<Piece  NumberOfPoints="1079" NumberOfCells="1944">
<Points>
<DataArray  type="Float64"  NumberOfComponents="3"  format="ascii">0.08500000000000001 0.02 0  0.005 0.02 0  0.005 0.03 0  0 0.03 0  0 0 0  0.005 0 0  0.005 0.01 0  0.08500000000000001 0.01 0  0 0.015 0  0 0.0075 0  0 0.0225 0  0.04500000000000001 0.02 0  0.04500000000000001 0.01 0  0.025 0.01 0  0.025 0.02 0  0.065 0.02 0  0.065 0.01 0  0.035 0.02 0  0.035 0.01 0  0.07500000000000001 0.02 0  0.07500000000000001 0.01 0  0.015 0.02 0  0.015 0.01 0  0.05500000000000001 0.01 0  0.05500000000000001 0.02 0  0.07000000000000001 0.01 0  0.07000000000000001 0.02 0  0.05 0.01 0  0.03 0.01 0  0.03 0.02 0  0.04000000000000001 0.01 0  0.01 0.01 0  0.02 0.02 0  0.06 0.015 0  0.08500000000000001 0.015 0  0.05 0.02 0  0.07250000000000001 0.015 0  0.04000000000000001 0.02 0  0.03750000000000001 0.015 0  0.0525 0.015 0  0.02 0.01 0  0.01 0.02 0  0.0275 0.015 0  0.0125 0.015 0  0.08000000000000002 0.01 0  0.08000000000000002 0.02 0  0.0325 0.014375 0  0.04291666666666667 0.015 0  0.065 0.015 0  0.005 0.005 0  0.005 0.015 0  0.02208333333333334 0.015 0  0.07791666666666668 0.015 0  0.005 0.025 0  0.06 0.01 0  0.06 0.02 0  0.01729166666666667 0.01572916666666667 0  0.04770833333333334 0.01427083333333334 0  0.06875000000000001 0.01625 0  0.008750000000000001 0.01625 0  0.05625000000000001 0.01625 0  0 0.00375 0  0 0.01875 0  0 0.01125 0  0 0.02625 0  0.08145833333333334 0.01354166666666667 0  0.0675 0.01 0  0.0075 0.0125 0  0.0625 0.0175 0  0.0575 0.0125 0  0.0625 0.0125 0  0.08207465277777778 0.01707465277777778 0  0.06767857142857144 0.01321428571428571 0  0.0175 0.01 0  0.01875 0.01291382575757576 0  0.0475 0.02 0  0.04564168086314595 0.01679860519591141 0  0.00296875 0.0125 0  0.0025 0.03 0  0.0025 0 0  0.00296875 0.0175 0  0.01521990740740741 0.0132349537037037 0  0.0497800925925926 0.0167650462962963 0  0.0325 0.02 0  0.03474264705882353 0.01674632352941176 0  0.03750000000000001 0.02 0  0.03025735294117647 0.01674632352941176 0  0.0275 0.02 0  0.0525 0.02 0  0.0125 0.01 0  0.04020833333333334 0.01322916666666667 0  0.03750000000000001 0.01 0  0.0225 0.02 0  0.02479166666666667 0.01677083333333333 0  0.07520833333333335 0.01322916666666667 0  0.07250000000000001 0.01 0  0.07520833333333335 0.01677083333333334 0  0.07250000000000001 0.02 0  0.04020833333333334 0.01677083333333333 0  0.0225 0.01 0  0.02375 0.01262152777777778 0  0.04250000000000001 0.02 0  0.04250000000000001 0.01 0  0.07750000000000001 0.01 0  0.07750000000000001 0.02 0  0.05036151960784314 0.01294424019607843 0  0.0705560064935065 0.01284699675324675 0  0.05458333333333334 0.01291666666666666 0  0.0021875 0.024375 0  0.005 0.0275 0  0.01125 0.0175 0  0.01463848039215686 0.01705575980392157 0  0.01 0.01375 0  0.03625 0.0125 0  0.0021875 0.009375 0  0.05375000000000001 0.0175 0  0.07125000000000001 0.0175 0  0.005 0.0025 0  0.0021875 0.005625 0  0.02655220103578155 0.01234889948210923 0  0.002187499999999999 0.020625 0  0.02979166666666667 0.01302083333333333 0  0.0525 0.01 0  0.07895833333333334 0.0125 0  0.01994277885235332 0.01704213007736944 0  0.07934656179076068 0.01733823814273861 0  0.04505722114764669 0.01295786992263056 0  0.06625 0.0175 0  0.006250000000000001 0.0175 0  0.05750000000000001 0.02 0  0.05875000000000001 0.0175 0  0.005 0.0225 0  0.005 0.0075 0  0.002375 0.027375 0  0.002375 0.002625000000000001 0  0.0475 0.01 0  0.0175 0.02 0  0.0325 0.01 0  0.03375 0.0121875 0  0.04261299435028249 0.01749205508474576 0  0.08500000000000001 0.0125 0  0.08250000000000002 0.01 0  0.02121963399965531 0.01224824108143494 0  0.0675 0.02 0  0.0125 0.02 0  0.02720152243589744 0.0175 0  0.03715165441176471 0.0175 0  0.08500000000000001 0.0175 0  0.0275 0.01 0  0.0025 0.0149560546875 0  0.0075 0.01 0  0.0075 0.02 0  0.06526785714285716 0.0125 0  0.01281031447005516 0.0125 0  0.0625 0.015 0  0.06 0.0125 0  0.05750000000000001 0.01 0  0.0625 0.02 0  0.0625 0.01 0  0.08250000000000002 0.02 0  0.04260103740101855 0.01252623201412851 0  0.02240052247582197 0.01750164767101344 0  0.07293583459427785 0.01238479732953041 0  0.005234374999999999 0.012265625 0  0.03528131980640358 0.01454684009679821 0  0.0325 0.01760027210036557 0  0.02532593822924343 0.01428227733767297 0  0.08009952069819683 0.01527145502895417 0  0.01987282359856536 0.01482587683689801 0  0.04828232595121382 0.01210233572595705 0  0.01671767404878618 0.01789766427404295 0  0.05125 0.01829007549029352 0  0.05247215456215357 0.01288882122882024 0  0.07338729919678716 0.01799385040160642 0  0.03838729919678716 0.01200614959839357 0  0.07717482110586968 0.01780301674207099 0  0.04771860040890012 0.01773306039388322 0  0.03125 0.01160380747126437 0  0.06875000000000001 0.01154265873015873 0  0.07625000000000001 0.01154065860215054 0  0.01625 0.01153997817696946 0  0.068125 0.018125 0  0.05437500000000001 0.015625 0  0.066875 0.015625 0  0.07039794950204951 0.01494384850614853 0  0.05687500000000001 0.018125 0  0.006875 0.015625 0  0.008749999999999999 0.01833333333333333 0  0.010625 0.015625 0  0.05625 0.01416666666666667 0  0.05812500000000001 0.015625 0  0.0449088595298192 0.01494528408816316 0  0 0.016875 0  0 0.013125 0  0.04962452342047931 0.01478673066448802 0  0.0153754765795207 0.01521326933551198 0  0.0771774565913315 0.01322498191305479 0  0.01857756431135545 0.01840228599899994 0  0.04642243568864456 0.01159771400100006 0  0.08125000000000002 0.01155637254901961 0  0.08317650804863432 0.0118234919513657 0  0.08288217288011697 0.01511353252923977 0  0.02837253504384828 0.0117177464035174 0  0.03896057962520807 0.01831163685754031 0  0.01125 0.0114244162490927 0  0.00935910490099115 0.0119067901980177 0  0.02946078431372549 0.01495404411764706 0  0.02875 0.0185829434466942 0  0.002968749999999999 0.0225 0  0.064375 0.016875 0  0.00296875 0.0075 0  0 0.001875 0  0 0.005625 0  0 0.009375 0  0 0.020625 0  0 0.024375 0  0 0.028125 0  0.06062500000000001 0.01812500000000001 0  0.008303571428571429 0.01446428571428572 0  0.01375 0.01865917058160413 0  0.05137790313978056 0.01143372888932909 0  0.04125000000000001 0.01131513063942604 0  0.04101690263896279 0.01844430285842771 0  0.02399563533148224 0.01844349395710867 0  0.08125000000000002 0.01868815426145731 0  0.05354684380692146 0.01145463537600848 0  0.01699195823639423 0.01315138909884649 0  0.07598357371794873 0.015 0  0.04098357371794872 0.015 0  0.003744047619047619 0.00375 0  0.003344630281690141 0.02580853873239437 0  0.04625 0.0187354532243972 0  0.06388392857142858 0.01138392857142858 0  0.06375 0.01375 0  0.05875 0.01375 0  0.06375 0.02 0  0.00622802734375 0.01372802734375 0  0.003630681818181818 0.001369318181818182 0  0.003630681818181818 0.02863068181818182 0  0.06125 0.01625 0  0.06125 0.01125 0  0.05625000000000001 0.01 0  0.05875 0.01125 0  0.06125 0.01375 0  0.08337864763241221 0.0183786476324122 0  0.05213634138653413 0.01674432930673294 0  0.04375000000000001 0.01 0  0.07424178685897437 0.01529258578431373 0  0.03924178685897436 0.01529258578431372 0  0.03410139294454583 0.01843406022904556 0  0.03089860705545417 0.01843406022904556 0  0.02094160484316717 0.01850229584291991 0  0.04375000000000001 0.02 0  0.04437042160883325 0.01820701498672512 0  0.04816311705429156 0.01600061344661149 0  0.07151224904251052 0.0114127410511319 0  0.04395528506193162 0.01639387970349481 0  0.0128750358694518 0.0167500179347259 0  0.02855808448399799 0.01642839899839741 0  0.02812690373330794 0.01340955081400569 0  0.08358500641945087 0.01351822349116885 0  0.05590277777777778 0.01173611111111111 0  0.06683110430364615 0.01164926404662283 0  0.02573206694914602 0.01842532451809762 0  0.01438126661842046 0.01166701193099454 0  0.02384283211216029 0.01526549696571563 0  0.03625 0.02 0  0.004609375000000001 0.0182421875 0  0.003398437500000001 0.01943359375 0  0.001728307845744682 0.01894718251329787 0  0.004377805359085963 0.01656966216675735 0  0.04649673309852075 0.0153889662370871 0  0.03615513600614297 0.01592654988586041 0  0.03316985071935832 0.01598763605018279 0  0.03110111603888768 0.01529816275177977 0  0.01370614113484869 0.0138804542047638 0  0.04930041102671841 0.01842260568883502 0  0.07875000000000001 0.02 0  0.0745395359848485 0.01165101111925709 0  0.03860755698543604 0.01373741558556884 0  0.02605038706571737 0.01573944002207753 0  0.07559826163500957 0.01841729376139847 0  0.04437500000000001 0.01149157931286774 0  0.06874116707361365 0.01454618473032123 0  0.003761917372881356 0.0239307468220339 0  0.003984374999999999 0.01125 0  0.003768503289473684 0.01392539576480263 0  0.001796875 0.0111328125 0  0.003761917372881356 0.008930746822033899 0  0.005 0.00625 0  0.003761917372881355 0.0210692531779661 0  0.06633928571428571 0.01410714285714285 0  0.006484375 0.01125 0  0.08364120589325512 0.01657288979763549 0  0.03576267476503373 0.0184116442851204 0  0.07370875846579374 0.0137848203678562 0  0.06964285714285715 0.01758928571428571 0  0.05520833333333334 0.01833333333333333 0  0.06491071428571429 0.01839285714285714 0  0.0510098951944636 0.01559941474766356 0  0.01786087179886325 0.0115702210443714 0  0.01972197383235524 0.01160576093166696 0  0.01804697593127788 0.01433503795474974 0  0.001644074528704677 0.01642892723865279 0  0.00125 0.03 0  0.001497685185185185 0.001267746913580247 0  0.07315451164202422 0.01643443118912983 0  0.001233906745910645 0.0140625 0  0.01162635071030191 0.01362229857939618 0  0.01528023503083844 0.01845923557506155 0  0.06625 0.02 0  0.07695012019230771 0.01624387078484555 0  0.03139091092855769 0.01320776147621796 0  0.03857339107781042 0.01675295051810485 0  0.001754993120977522 0.02590789105493891 0  0.002288757784711197 0.00412546923654445 0  0.07914382119690884 0.01404430049871201 0  0.001391810103286306 0.01257390899021902 0  0.0419501201923077 0.01614675005432421 0  0.001484375 0.007018229166666667 0  0.001484375 0.02201822916666666 0  0.048
[...]
<PointData  Scalars="pressure"> 
<DataArray  type="Float64"  Name="pressure"  format="ascii">-4.5036626967789653e-06  1.1475905909752570e-03  7.3338065275280824e-04  3.5844079506281519e-04  4.1570315061039852e-04  1.6847585322298954e-04  1.1415806267334432e-03  -4.3336184753794442e-06  1.1415474196757409e-03  1.1962690503424817e-03  1.2105674443715876e-03  5.6028693877964247e-04  5.6034046954047182e-04  8.4111940024235909e-04  8.4111278417897022e-04  2.7919754032839202e-04  2.7935003900435415e-04  7.0067582872039460e-04  7.0059402403012199e-04  1.3852034927613801e-04  1.3896298494177087e-04  9.8165011434881680e-04  9.8127569888641314e-04  4.1930304946052882e-04  4.1962792824140681e-04  2.0912285513904964e-04  2.0911718824196524e-04  4.9009089644565620e-04  7.7082504528919909e-04  7.7086328754937190e-04  6.3054675518075837e-04  1.0516282293650129e-03  9.1124163411825782e-04  3.4952890218214891e-04  -7.7075893037826989e-21  4.8991767292335070e-04  1.7391081184753169e-04  6.3077400785466556e-04  6.6553253074970757e-04  4.5484915027759642e-04  9.1120965055677594e-04  1.0528100421105773e-03  8.0592350928685341e-04  1.0164353035765272e-03  6.8500447480638682e-05  6.7953891114745706e-05  7.3573250804699890e-04  5.8945171002572729e-04  2.7926852116964400e-04  1.2367764661182002e-03  1.1154365829626604e-03  8.8195847084307564e-04  9.7834037334502296e-05  1.2571326450405804e-03  3.4944203200229187e-04  3.4916974549577132e-04  9.4920761839707658e-04  5.2213439695749124e-04  2.2660217840366268e-04  1.0689542812324471e-03  4.0221727976452775e-04  1.2330288823371180e-03  1.1613477450451812e-03  1.1554464584151605e-03  1.2528839798474226e-03  4.8254957065506025e-05  2.4411263866435423e-04  1.0862351138822329e-03  3.1437897026622276e-04  3.8464314139723468e-04  3.1438216158472817e-04  3.9574902641784530e-05  2.4164314041636472e-04  9.4627353562305391e-04  9.2873338499769274e-04  5.2453864813374292e-04  5.5116910725659153e-04  1.1386370506492646e-03  1.7068631929514806e-03  1.6810493118716672e-03  1.1417536918078384e-03  9.7824474582931136e-04  4.9301815893878045e-04  7.3547532522147407e-04  7.0425435285844577e-04  6.6534625047538895e-04  7.6722061459351995e-04  8.0581870542165038e-04  4.5487423471766286e-04  1.0165392523453524e-03  6.2750020236110348e-04  6.6568185234593678e-04  8.7601539282557541e-04  8.4394060398332673e-04  1.3586658443851262e-04  1.7392249190536035e-04  1.3585001359539474e-04  1.7345532429017944e-04  6.2751707344859959e-04  8.7614062684292649e-04  8.5858400335360051e-04  5.9526628945046425e-04  5.9557624334744680e-04  1.0437334620586369e-04  1.0380322140173219e-04  4.8488311905562167e-04  2.0124551580967911e-04  4.2560114977582917e-04  1.2395621744478445e-03  1.3154200701038076e-03  1.0342059112161319e-03  9.8651346902773772e-04  1.0512791262073501e-03  6.8304958081180699e-04  1.1719299179156041e-03  4.3731735696743830e-04  1.9146742553765846e-04  1.2838503409628862e-03  1.2221370255241417e-03  8.1924346783885499e-04  1.1813797547004469e-03  7.7374456439638871e-04  4.5457232430596396e-04  8.3111988399717335e-05  9.1199484432341832e-04  7.7699501727996988e-05  5.5937266579662555e-04  2.6172170863569214e-04  1.1051434175584740e-03  3.8505080450373154e-04  3.6712832236744208e-04  1.2100721377773891e-03  1.1961910272717995e-03  1.3024063251086324e-03  1.2725201969810503e-03  5.2507003924396104e-04  9.4570919425951687e-04  7.3572588589137079e-04  7.1821464896369431e-04  5.9372333051689781e-04  -1.3490356788527452e-07  3.3430703229753472e-05  8.9409079208520802e-04  2.4389522890449754e-04  1.0168071984395627e-03  8.1011529859912961e-04  6.7044140849210508e-04  -1.2373032378686430e-07  8.0548717196623923e-04  1.1356087464303099e-03  1.0876294600119512e-03  1.0891386944956276e-03  2.7549774918847258e-04  1.0120216193724219e-03  3.1439447240337793e-04  3.4953266055320182e-04  3.8463129398479497e-04  3.1419158289885181e-04  3.1376664728010608e-04  3.3573514974811707e-05  5.9389435366659143e-04  8.7750064730405749e-04  1.6779505913414332e-04  1.1175607168881108e-03  6.9668219401224638e-04  7.3572537177234902e-04  8.3644819150903969e-04  6.7263512557789326e-05  9.1297953338771774e-04  5.1407311109356629e-04  9.5728248353458135e-04  4.7238190398320694e-04  4.5523499760209544e-04  1.6140583742028011e-04  6.5305866472600491e-04  1.0823469858276361e-04  5.2192048678373424e-04  7.5325176488436616e-04  2.2660711433715984e-04  1.2122978333512806e-04  9.6378370414106713e-04  2.3538729631522227e-04  4.2853124833825714e-04  2.5293506794790406e-04  2.0344929736494454e-04  3.9350985227750525e-04  1.0937479084992612e-03  1.0700334200726561e-03  1.0427221294738373e-03  4.0220224880552815e-04  3.7587844321170693e-04  5.6146164539914794e-04  1.1470277034310429e-03  1.1444604157734139e-03  4.9522080577098909e-04  9.7610599826764141e-04  1.0820080879364565e-04  9.3111755140109142e-04  5.4018664068514037e-04  5.0816213573204928e-05  2.3753091923341444e-05  2.8731856341585878e-05  7.9364367798026277e-04  6.4505611554172720e-04  1.0339141869393177e-03  1.0603955781655194e-03  7.7839621695697874e-04  7.8835438287233725e-04  1.2100360958347822e-03  2.8804314255617306e-04  1.1965452536041295e-03  1.2294731682056810e-03  1.2192323932003763e-03  1.1742269659555445e-03  1.1837032610838732e-03  1.2358592810874174e-03  1.2402461617833712e-03  3.4074473255886581e-04  1.0745513204029262e-03  9.9909639887165130e-04  4.7059058130258246e-04  6.1288603918933872e-04  6.1618153560561383e-04  8.5508735295914047e-04  5.0748689591285329e-05  4.4017373352887900e-04  9.5339370869632653e-04  1.2497353191012200e-04  6.1661256020843780e-04  1.2585764763228867e-03  1.2712640156020221e-03  5.4259504428468854e-04  2.9492893098362929e-04  2.9682531075797129e-04  3.6708733416651303e-04  2.9657026440001004e-04  1.1018015494682217e-03  1.3625244801503749e-03  1.3893884889546188e-03  3.3196333297271245e-04  3.3194187701574056e-04  4.0235235077144994e-04  3.6707926146616103e-04  3.3196312575040256e-04  2.0609798896985121e-05  4.5995342368186431e-04  5.7743610795425943e-04  1.4943682871819817e-04  6.4107789685431053e-04  7.1323736163995445e-04  7.5826449554338067e-04  8.9798818170383618e-04  5.7756889542094983e-04  5.6904472436469875e-04  5.1573230393459741e-04  1.8781179513258810e-04  5.7485946241351497e-04  1.0112897464178647e-03  7.9106956383897848e-04  7.9711912883660317e-04  1.8987974376789397e-05  4.0705826895630532e-04  2.5351464208716847e-04  8.3076602713539596e-04  9.8996396284848753e-04  8.5726238508743212e-04  6.8343693156300614e-04  1.1314111161715619e-03  1.1581349819351459e-03  1.1613654853062053e-03  1.1251253192835957e-03  5.3915259303945261e-04  6.8442226548229453e-04  7.2632821360706361e-04  7.5537028919706072e-04  9.9948767823052889e-04  4.9972470586700016e-04  8.6027419295770706e-05  1.4525142115332965e-04  6.4997531095902341e-04  8.2627480009324654e-04  1.3034898911850923e-04  5.6896604844297810e-04  2.2672390990405880e-04  1.2354357228087217e-03  1.1390471985180768e-03  1.1274665798755893e-03  1.1541757032281507e-03  1.1737746689543583e-03  1.2156595531495524e-03  1.1839248341355415e-03  2.6045445193187134e-04  1.1028302250682155e-03  1.8198569709509590e-05  6.8998515064848615e-04  1.5693047328617206e-04  2.1406878650935738e-04  4.1683316425967452e-04  2.8050370474297950e-04  4.7576548440412148e-04  9.4121210142476472e-04  9.1509036383401025e-04  9.3859996494436804e-04  1.1430396497399771e-03  1.2963543876701818e-03  1.2403505695565743e-03  1.6470324748660037e-04  1.1407868977242152e-03  1.0286108429462997e-03  9.7749695314650834e-04  2.6197771302455464e-04  1.1139428038685936e-04  7.5129581281546687e-04  6.5047366364700979e-04  1.2608184347481172e-03  1.2426884795638771e-03  8.0614078095499981e-05  1.1453941112466032e-03  6.0303409812742308e-04  1.2028584623596612e-03  1.2029685175559655e-03  5.0460777815867499e-04  4.9383610988062521e-04  9.6674937384390531e-04  4.6967319678127149e-04  5.3754206485517127e-04  9.3380702778768560e-04  5.7587893051001251e-04  8.9856197147786634e-04  6.0303210746319761e-04  4.4061032535919930e-04  6.3253228802696360e-04  9.9683124063944316e-04  8.9625094339635205e-04  8.7781484426251448e-04  8.4009910225420778e-04  8.5864004923371414e-04  8.2369129705619343e-04  8.7451395711758023e-04  2.2159156491876600e-04  1.8831010170773039e-04  9.9584178365801974e-05  1.2237589716618592e-03  1.2252893045211380e-03  1.1849366912669316e-03  7.7358034693314275e-04  1.2671466505545432e-03  8.1725715122187253e-04  7.0198609933780777e-04  2.0188757463501808e-04  2.4416114728005578e-04  4.1976654711855816e-04  2.5293404599640028e-04  1.7928948041871535e-04  1.0547955404760284e-03  6.9916338851656672e-04  6.8265253166811671e-04  6.7090285708401684e-04  1.0842184955529184e-03  1.1080742373316740e-03  3.5246035752704451e-04  2.7049198350756839e-04  3.7589263350293610e-04  4.5199880485220556e-04  6.7860535676861312e-04  1.0342159275678650e-03  3.0562875182222200e-04  1.0471896592041112e-03  1.0197190198817389e-03  1.0938524900928688e-03  1.8907085670889415e-04  3.8467601966063876e-04  4.7482479630206601e-05  7.1646064203518222e-04  1.0689064726274653e-03  2.0729332122435069e-04  4.2168928014986028e-04  5.8279971017002504e-05  7.7231409413721099e-05  8.4031828229790749e-05  1.2292088551407439e-03  4.3733078565133993e-04  6.3466105511972618e-05  8.5418912111774131e-05  7.1352093210467750e-05  9.6360925448034590e-04  5.0749423114832806e-04  1.1529004254435303e-03  7.4438991516747298e-04  2.0769740715196342e-04  1.1093992535029522e-03  1.0690194804056847e-03  1.0781121231037798e-03  8.6310608058790038e-04  9.2874008460989380e-04  8.3601822488555701e-04  4.0234205140809580e-04  2.9682740404512803e-04  2.2687613852934280e-04  3.3207873764342993e-04  8.6240145496415462e-04  5.3222812372247046e-04  1.0440128902708210e-03  6.6577428438416286e-04  1.2440608679107714e-03  1.2398299775489591e-03  1.3160209995683350e-03  1.5607480095449947e-04  9.6519532529353838e-04  7.6399799073247011e-04  1.1560646332785466e-03  1.0593839513859153e-03  5.8653476551038207e-04  8.9365534774278480e-04  1.1343732534399328e-03  6.6596934266240933e-07  9.1691861081601784e-06  3.2381224336037865e-04  3.5770827346327555e-04  1.5644416945532550e-04  6.4790146719916487e-04  2.2003774247321948e-04  7.3259588060938961e-04  7.3407178249622785e-04  7.1855675319957115e-04  9.1030038470442495e-04  9.3078164665878153e-04  3.8506450412162130e-04  8.1029988795662642e-04  5.8767800546046434e-04  6.7246259727549238e-04  6.6683271341052587e-04  8.8152335275327326e-04  1.6180529244439007e-04  1.0076174108243510e-03  8.0856333880073702e-04  8.2648122161825966e-04  8.0604103070358720e-04  6.8747110387291476e-04  1.0261490941272553e-03  2.7735168469894631e-04  2.7738416108998872e-04  2.5856437565139180e-04  1.1662518962600968e-03  4.4332689662611528e-04  1.1366374748548362e-03  8.9475676526400128e-04  8.7265092371400490e-04  1.9133607444364806e-04  1.2141442436241591e-04  5.0723360980066130e-04  8.2365853256497412e-04  1.9163618958276040e-04  7.1807701774457633e-04  3.1439291671781633e-04  2.6151285046198018e-04  2.9688172892493742e-04  4.3756646157899710e-04  5.0542846274072851e-05  8.5837502873201956e-04  4.7235355066957321e-04  6.1283193304080986e-04  6.4788661403717210e-04  5.0615028069469941e-05  1.2118368626937430e-04  2.2661413908630398e-04  4.7238850433775078e-04  6.1295372316405464e-04  1.2318568450725711e-03  -1.2146087847246212e-08  3.8464844434748607e-04  3.1442320688304144e-04  9.9907636442156324e-04  1.0339108712210500e-03  1.0702094188900510e-03  9.6378563231615038e-04  1.1772201547144137e-03  9.9856308055110751e-04  1.5859799268784296e-03  1.2602115116290265e-03  1.3247267714574140e-03  1.5417153814605337e-03  1.3022825655518767e-03  1.1056849675584416e-03  1.1159462894877697e-03  1.1882204139165369e-03  7.5957239119933069e-09  8.9376038982423849e-04  3.1439276921164911e-04  1.2844279980881940e-03  7.8828051840277929e-04  7.8854731473144686e-04  9.2867188649474800e-04  7.5311946647690713e-04  1.3707581827485833e-03  8.3774975186747597e-07  7.5359532511738269e-04  4.3447028088949591e-04  3.3196225686819180e-04  3.4952731943433936e-04  3.6708017041515539e-04  3.4953912212850436e-04  3.6701640398223900e-04  3.3197335846287391e-04  3.3268516797353037e-04  5.4305219685208046e-04  5.4256354003148419e-04  3.6719796594437780e-04  9.6984989564042571e-06  6.1186042096602017e-04  9.4687140013792589e-05  5.1626942237128234e-04  6.1131205910676585e-04  5.4666913010170681e-04  1.1167715575318010e-03  8.5713937653599274e-04  4.0804853999422782e-04  2.4385331059159266e-04  1.4762168062579080e-04  3.3470774640183856e-05  5.7622588531102087e-04  1.8405725645693821e-04  4.1081103269234706e-04  1.1715090446209979e-03  1.1409623873511871e-03  7.4122263059006740e-04  7.1928503362061861e-04  9.5866048209937622e-05  1.2072204546364805e-03  1.1501592095133650e-04  1.2882864552571365e-03  1.1751000732658954e-03  7.8141856459855213e-04  3.9245658817860338e-04  2.1045326226830859e-04  4.2299563438076397e-04  2.9246066245704243e-04  6.4282428015216957e-05  9.1444108098385612e-04  4.7643802985386215e-04  1.1277857555217151e-03  1.2430369067533693e-03  9.9609580647366867e-04  1.5222686051249504e-04  1.4243433057469309e-04  6.3544562855078987e-04  1.1209767979550654e-03  1.1020394332312696e-03  1.1296768359393783e-03  5.0658996183948002e-04  6.9987104453656662e-04  3.3083081512317188e-05  7.5350348811700253e-04  8.4218335559949748e-04  2.9866865432260617e-04  4.0646291557675700e-04  8.8970117727800858e-04  1.4563087498747923e-04  9.4672097486256401e-04  5.1990600113171115e-04  5.1628795831212186e-04  9.4992258591935369e-04  1.7292251861222402e-04  1.0390930987822836e-03  5.3770981285692298e-04  6.5706399052670303e-04  1.0280879262399201e-03  6.7436383693419237e-05  1.2093990914125914e-04  5.2952653483462605e-05  9.1420764264292975e-04  9.1914248457762593e-04  1.0900642663219922e-03  1.3966711265169594e-03  2.3651814836624761e-04  1.7577428485705579e-04  6.4114773600396871e-04  1.1029885858824509e-03  7.1403766157652636e-04  1.2160947296894758e-03  7.1738258062267551e-04  4.5537420700191629e-04  8.2536910873413135e-04  7.7343041777453748e-04  9.6338241283073296e-04  3.6529719792584818e-05  6.0210405520443142e-04  1.1140174510248957e-04  5.5422589049069668e-04  9.8926301818474775e-04  1.3408652023875144e-03  6.5662596156591390e-04  1.6499323627299704e-04  8.4919564905940113e-04  9.2816243501016890e-05  4.8648976708135850e-04  1.0823752593332491e-03  1.1529684452461436e-03  3.1878069007709068e-05  1.4620785124772639e-05  4.8114250875849198e-04  7.3885882512982623e-04  4.4041337367338771e-04  4.7006104028812421e-04  6.3919433553738005e-04  2.1727753220623060e-04  8.9821967261196473e-04  1.0005262018114376e-03  1.2120239430957974e-03  1.1908600903293193e-03  1.2167471332015516e-03  1.0143982447815565e-03  2.7045462982298662e-04  1.1179702585589852e-03  1.0602418125050378e-03  1.0804459441265610e-03  1.0695020045195553e-03  1.4972197734808071e-04  1.2501087174958980e-04  6.5459373760189457e-04  4.9818499664461854e-04  4.5514220863162994e-04  7.4322597576406224e-04  6.8295215791630017e-04  4.6362484439358949e-04  6.3021045455817937e-04  6.2925440903435943e-04  1.2333036198984263e-03  9.7323668628253388e-04  6.8723664618254804e-04  1.8833987718383765e-04  8.2338646971619244e-04  7.9568418601604855e-04  6.6424117284650977e-04  7.8318810246605841e-04  9.1993565375612842e-04  1.1894903270074282e-03  1.1468475276669855e-03  7.2698745469176136e-04  1.2396737605307969e-03  7.6452095550566047e-04  7.6199908645866257e-04  1.2032666122152817e-03  1.1932805560692279e-03  1.1904965137271195e-03  5.5367650226516762e-04  5.5730687235578964e-04  9.4155596714617777e-04  7.5001365982973892e-04  5.8853998992354994e-04  1.2267521371434162e-03  1.1823138730610735e-03  6.8534960149839539e-04  1.0603525213699313e-03  1.1508264948937971e-03  1.1516812693330466e-03  8.5893971166630512e-05  4.8472004414439317e-04  8.7062866457333844e-04  4.6673592476373767e-05  5.9587005536351160e-05  4.1700884477967935e-05  5.7549559254271485e-04  5.6184574124434406e-04  5.5267390975900950e-04  4.8272143186798249e-04  2.3334959785796186e-04  2.3539198313012025e-04  1.1432640043507172e-03  4.9010278629027168e-04  9.8403022622967334e-04  9.6149491498436206e-04  5.0824980212612063e-04  1.1243736469756216e-04  1.3383762680914494e-04  1.3270231659448175e-04  1.1916233753088303e-04  9.5501838723295715e-04  9.7635664926499100e-04  9.7253183815746195e-04  6.5633566616326872e-04  2.9175267666958554e-04  3.4075037002012220e-04  3.0207236350660748e-04  1.0552001865673155e-03  2.3539653451347129e-04  2.8365821548163687e-04  3.9348874838952678e-04  2.4854272044268682e-04  2.3099561849274425e-04  4.4178576082294413e-04  1.0949572831393626e-03  1.0428886263415035e-03  3.7581207751362448e-04  1.0794060443932586e-03  2.5732604039642746e-04  2.6610099549263561e-04  2.7487464821136711e-04  3.8032211562388655e-04  3.6710299103535579e-04  3.5322729788300820e-04  3.2827185942911846e-04  3.6365908182556505e-04  3.4534458962592879e-04  8.0780347108104015e-05  1.1611954032358082e-05  5.2880608909907127e-04  4.1104617532803658e-04  9.7851235949869989e-05  6.1367273052348513e-04  7.9202955332092573e-04  7.6862731790683413e-04  1.0462326574053301e-03  7.9520565417629430e-04  8.8623303260235685e-04  9.2391930252073181e-04  7.0172402674055186e-04  1.0733311437886271e-03  1.0201921302559127e-03  8.6989608928050239e-05  2.1785984054112833e-04  8.5498388738762152e-04  8.4163003626122124e-04  7.4450726949215650e-04  3.7460818412894729e-05  2.3701748892098354e-05  9.9783403172988640e-06  5.5733564271937452e-04  1.0333525528030915e-03  6.0303232841166070e-04  6.2195955301706351e-04  6.1743510368733481e-04  1.2563516292569442e-04  7.0785703385609078e-04  5.8945923104873513e-04  6.2547701731567487e-04  5.3009296431062182e-04  9.3776540398177847e-06  7.8190874713004836e-04  7.9715883965181136e-04  8.0581453392375381e-04  1.2551847774209689e-03  1.1520839640891025e-03  4.1099320160529096e-04  3.9748944941927729e-04  9.9040430251219594e-05  9.6367676303433928e-04  7.1270053913409862e-04  9.5217110569477750e-04  6.4127611526217635e-05  1.2126042810996979e-03  9.0245803724825664e-04  8.5004743560648929e-04  5.0351994807354146e-04  1.2086173540086535e-03  5.8160433877448784e-04  5.7393827164156825e-04  5.6501450615490854e-04  1.0566190963907252e-03  1.0250723944981992e-03  1.2202082185978269e-03  9.2606036767900739e-04  1.0138192674096888e-03  7.7961302427394295e-04  5.2910537713055333e-04  1.1241302242956613e-04  4.5136663021233520e-04  5.4263158474576234e-05  9.2801241367591555e-04  1.1960815026374797e-03  1.2236006354879041e-03  1.1638727797831099e-03  2.9243857050857995e-04  1.2290913389903038e-03  1.1849915715716115e-03  1.1492502714151871e-03  1.1415872907793521e-03  1.2529020084304577e-03  1.1533603535499738e-03  1.2458961295013955e-03  8.7593928719871376e-04  2.1589698116645571e-04  9.8927133956586361e-04  1.7525161809722118e-04  1.2515122857528413e-03  9.5261954844619095e-04  9.4117995118550362e-04  6.0435012751865614e-04  8.6806147131221966e-04  8.6601738225746089e-04  8.4977953164626894e-04  1.3863212522504035e-04  7.4209345497702829e-05  9.2695975361608055e-04  1.3396428681245832e-05  2.6837704559861222e-05  3.0345361040023902e-05  6.3907362535178163e-04  6.3894874978532668e-04  1.2881810599186159e-03  6.8913789540936301e-04  1.0622687217709959e-03  6.2916142644904680e-04  9.8728851705298919e-04  1.0079355241647294e-03  1.5606164733441972e-04  1.4757391803958751e-04  1.2436562994979207e-03  8.0923001753874582e-04  1.0311615117485069e-03  5.4582523494943783e-04  4.5992146025159011e-04  4.7790790601963466e-04  4.0992470715214918e-05  3.9478914988443146e-04  6.0010673550207026e-04  6.0401928385854910e-04  5.0326967599170584e-04  5.9533780375904123e-05  7.8414373695508664e-04  1.0813547314494163e-03  9.3918203668747131e-04  7.6208266119549427e-04  7.0941915838088065e-04  7.2583977011374333e-04  1.1326390448572626e-03  1.1405338679390011e-03  1.1622809174309981e-03  4.4476374140505018e-04  4.297