<?xml version="1.0"?>
<VTKFile type="UnstructuredGrid"  version="0.1"  >
<UnstructuredGrid>
<Piece  NumberOfPoints="1079" NumberOfCells="1944">
<Points>
<DataArray  type="Float64"  NumberOfComponents="3"  format="ascii">0.08500000000000001 0.02 0  0.005 0.02 0  0.005 0.03 0  0 0.03 0  0 0 0  0.005 0 0  0.005 0.01 0  0.08500000000000001 0.01 0  0 0.015 0  0 0.0075 0  0 0.0225 0  0.04500000000000001 0.02 0  0.04500000000000001 0.01 0  0.025 0.01 0  0.025 0.02 0  0.065 0.02 0  0.065 0.01 0  0.035 0.02 0  0.035 0.01 0  0.07500000000000001 0.02 0  0.07500000000000001 0.01 0  0.015 0.02 0  0.015 0.01 0  0.05500000000000001 0.01 0  0.05500000000000001 0.02 0  0.07000000000000001 0.01 0  0.07000000000000001 0.02 0  0.05 0.01 0  0.03 0.01 0  0.03 0.02 0  0.04000000000000001 0.01 0  0.01 0.01 0  0.02 0.02 0  0.06 0.015 0  0.08500000000000001 0.015 0  0.05 0.02 0  0.07250000000000001 0.015 0  0.04000000000000001 0.02 0  0.03750000000000001 0.015 0  0.0525 0.015 0  0.02 0.01 0  0.01 0.02 0  0.0275 0.015 0  0.0125 0.015 0  0.08000000000000002 0.01 0  0.08000000000000002 0.02 0  0.0325 0.014375 0  0.04291666666666667 0.015 0  0.065 0.015 0  0.005 0.005 0  0.005 0.015 0  0.02208333333333334 0.015 0  0.07791666666666668 0.015 0  0.005 0.025 0  0.06 0.01 0  0.06 0.02 0  0.01729166666666667 0.01572916666666667 0  0.04770833333333334 0.01427083333333334 0  0.06875000000000001 0.01625 0  0.008750000000000001 0.01625 0  0.05625000000000001 0.01625 0  0 0.00375 0  0 0.01875 0  0 0.01125 0  0 0.02625 0  0.08145833333333334 0.01354166666666667 0  0.0675 0.01 0  0.0075 0.0125 0  0.0625 0.0175 0  0.0575 0.0125 0  0.0625 0.0125 0  0.08207465277777778 0.01707465277777778 0  0.06767857142857144 0.01321428571428571 0  0.0175 0.01 0  0.01875 0.01291382575757576 0  0.0475 0.02 0  0.04564168086314595 0.01679860519591141 0  0.00296875 0.0125 0  0.0025 0.03 0  0.0025 0 0  0.00296875 0.0175 0  0.01521990740740741 0.0132349537037037 0  0.0497800925925926 0.0167650462962963 0  0.0325 0.02 0  0.03474264705882353 0.01674632352941176 0  0.03750000000000001 0.02 0  0.03025735294117647 0.01674632352941176 0  0.0275 0.02 0  0.0525 0.02 0  0.0125 0.01 0  0.04020833333333334 0.01322916666666667 0  0.03750000000000001 0.01 0  0.0225 0.02 0  0.02479166666666667 0.01677083333333333 0  0.07520833333333335 0.01322916666666667 0  0.07250000000000001 0.01 0  0.07520833333333335 0.01677083333333334 0  0.07250000000000001 0.02 0  0.04020833333333334 0.01677083333333333 0  0.0225 0.01 0  0.02375 0.01262152777777778 0  0.04250000000000001 0.02 0  0.04250000000000001 0.01 0  0.07750000000000001 0.01 0  0.07750000000000001 0.02 0  0.05036151960784314 0.01294424019607843 0  0.0705560064935065 0.01284699675324675 0  0.05458333333333334 0.01291666666666666 0  0.0021875 0.024375 0  0.005 0.0275 0  0.01125 0.0175 0  0.01463848039215686 0.01705575980392157 0  0.01 0.01375 0  0.03625 0.0125 0  0.0021875 0.009375 0  0.05375000000000001 0.0175 0  0.07125000000000001 0.0175 0  0.005 0.0025 0  0.0021875 0.005625 0  0.02655220103578155 0.01234889948210923 0  0.002187499999999999 0.020625 0  0.02979166666666667 0.01302083333333333 0  0.0525 0.01 0  0.07895833333333334 0.0125 0  0.01994277885235332 0.01704213007736944 0  0.07934656179076068 0.01733823814273861 0  0.04505722114764669 0.01295786992263056 0  0.06625 0.0175 0  0.006250000000000001 0.0175 0  0.05750000000000001 0.02 0  0.05875000000000001 0.0175 0  0.005 0.0225 0  0.005 0.0075 0  0.002375 0.027375 0  0.002375 0.002625000000000001 0  0.0475 0.01 0  0.0175 0.02 0  0.0325 0.01 0  0.03375 0.0121875 0  0.04261299435028249 0.01749205508474576 0  0.08500000000000001 0.0125 0  0.08250000000000002 0.01 0  0.02121963399965531 0.01224824108143494 0  0.0675 0.02 0  0.0125 0.02 0  0.02720152243589744 0.0175 0  0.03715165441176471 0.0175 0  0.08500000000000001 0.0175 0  0.0275 0.01 0  0.0025 0.0149560546875 0  0.0075 0.01 0  0.0075 0.02 0  0.06526785714285716 0.0125 0  0.01281031447005516 0.0125 0  0.0625 0.015 0  0.06 0.0125 0  0.05750000000000001 0.01 0  0.0625 0.02 0  0.0625 0.01 0  0.08250000000000002 0.02 0  0.04260103740101855 0.01252623201412851 0  0.02240052247582197 0.01750164767101344 0  0.07293583459427785 0.01238479732953041 0  0.005234374999999999 0.012265625 0  0.03528131980640358 0.01454684009679821 0  0.0325 0.01760027210036557 0  0.02532593822924343 0.01428227733767297 0  0.08009952069819683 0.01527145502895417 0  0.01987282359856536 0.01482587683689801 0  0.04828232595121382 0.01210233572595705 0  0.01671767404878618 0.01789766427404295 0  0.05125 0.01829007549029352 0  0.05247215456215357 0.01288882122882024 0  0.07338729919678716 0.01799385040160642 0  0.03838729919678716 0.01200614959839357 0  0.07717482110586968 0.01780301674207099 0  0.04771860040890012 0.01773306039388322 0  0.03125 0.01160380747126437 0  0.06875000000000001 0.01154265873015873 0  0.07625000000000001 0.01154065860215054 0  0.01625 0.01153997817696946 0  0.068125 0.018125 0  0.05437500000000001 0.015625 0  0.066875 0.015625 0  0.07039794950204951 0.01494384850614853 0  0.05687500000000001 0.018125 0  0.006875 0.015625 0  0.008749999999999999 0.01833333333333333 0  0.010625 0.015625 0  0.05625 0.01416666666666667 0  0.05812500000000001 0.015625 0  0.0449088595298192 0.01494528408816316 0  0 0.016875 0  0 0.013125 0  0.04962452342047931 0.01478673066448802 0  0.0153754765795207 0.01521326933551198 0  0.0771774565913315 0.01322498191305479 0  0.01857756431135545 0.01840228599899994 0  0.04642243568864456 0.01159771400100006 0  0.08125000000000002 0.01155637254901961 0  0.08317650804863432 0.0118234919513657 0  0.08288217288011697 0.01511353252923977 0  0.02837253504384828 0.0117177464035174 0  0.03896057962520807 0.01831163685754031 0  0.01125 0.0114244162490927 0  0.00935910490099115 0.0119067901980177 0  0.02946078431372549 0.01495404411764706 0  0.02875 0.0185829434466942 0  0.002968749999999999 0.0225 0  0.064375 0.016875 0  0.00296875 0.0075 0  0 0.001875 0  0 0.005625 0  0 0.009375 0  0 0.020625 0  0 0.024375 0  0 0.028125 0  0.06062500000000001 0.01812500000000001 0  0.008303571428571429 0.01446428571428572 0  0.01375 0.01865917058160413 0  0.05137790313978056 0.01143372888932909 0  0.04125000000000001 0.01131513063942604 0  0.04101690263896279 0.01844430285842771 0  0.02399563533148224 0.01844349395710867 0  0.08125000000000002 0.01868815426145731 0  0.05354684380692146 0.01145463537600848 0  0.01699195823639423 0.01315138909884649 0  0.07598357371794873 0.015 0  0.04098357371794872 0.015 0  0.003744047619047619 0.00375 0  0.003344630281690141 0.02580853873239437 0  0.04625 0.0187354532243972 0  0.06388392857142858 0.01138392857142858 0  0.06375 0.01375 0  0.05875 0.01375 0  0.06375 0.02 0  0.00622802734375 0.01372802734375 0  0.003630681818181818 0.001369318181818182 0  0.003630681818181818 0.02863068181818182 0  0.06125 0.01625 0  0.06125 0.01125 0  0.05625000000000001 0.01 0  0.05875 0.01125 0  0.06125 0.01375 0  0.08337864763241221 0.0183786476324122 0  0.05213634138653413 0.01674432930673294 0  0.04375000000000001 0.01 0  0.07424178685897437 0.01529258578431373 0  0.03924178685897436 0.01529258578431372 0  0.03410139294454583 0.01843406022904556 0  0.03089860705545417 0.01843406022904556 0  0.02094160484316717 0.01850229584291991 0  0.04375000000000001 0.02 0  0.04437042160883325 0.01820701498672512 0  0.04816311705429156 0.01600061344661149 0  0.07151224904251052 0.0114127410511319 0  0.04395528506193162 0.01639387970349481 0  0.0128750358694518 0.0167500179347259 0  0.02855808448399799 0.01642839899839741 0  0.02812690373330794 0.01340955081400569 0  0.08358500641945087 0.01351822349116885 0  0.05590277777777778 0.01173611111111111 0  0.06683110430364615 0.01164926404662283 0  0.02573206694914602 0.01842532451809762 0  0.01438126661842046 0.01166701193099454 0  0.02384283211216029 0.01526549696571563 0  0.03625 0.02 0  0.004609375000000001 0.0182421875 0  0.003398437500000001 0.01943359375 0  0.001728307845744682 0.01894718251329787 0  0.004377805359085963 0.01656966216675735 0  0.04649673309852075 0.0153889662370871 0  0.03615513600614297 0.01592654988586041 0  0.03316985071935832 0.01598763605018279 0  0.03110111603888768 0.01529816275177977 0  0.01370614113484869 0.0138804542047638 0  0.04930041102671841 0.01842260568883502 0  0.07875000000000001 0.02 0  0.0745395359848485 0.01165101111925709 0  0.03860755698543604 0.01373741558556884 0  0.02605038706571737 0.01573944002207753 0  0.07559826163500957 0.01841729376139847 0  0.04437500000000001 0.01149157931286774 0  0.06874116707361365 0.01454618473032123 0  0.003761917372881356 0.0239307468220339 0  0.003984374999999999 0.01125 0  0.003768503289473684 0.01392539576480263 0  0.001796875 0.0111328125 0  0.003761917372881356 0.008930746822033899 0  0.005 0.00625 0  0.003761917372881355 0.0210692531779661 0  0.06633928571428571 0.01410714285714285 0  0.006484375 0.01125 0  0.08364120589325512 0.01657288979763549 0  0.03576267476503373 0.0184116442851204 0  0.07370875846579374 0.0137848203678562 0  0.06964285714285715 0.01758928571428571 0  0.05520833333333334 0.01833333333333333 0  0.06491071428571429 0.01839285714285714 0  0.0510098951944636 0.01559941474766356 0  0.01786087179886325 0.0115702210443714 0  0.01972197383235524 0.01160576093166696 0  0.01804697593127788 0.01433503795474974 0  0.001644074528704677 0.01642892723865279 0  0.00125 0.03 0  0.001497685185185185 0.001267746913580247 0  0.07315451164202422 0.01643443118912983 0  0.001233906745910645 0.0140625 0  0.01162635071030191 0.01362229857939618 0  0.01528023503083844 0.01845923557506155 0  0.06625 0.02 0  0.07695012019230771 0.01624387078484555 0  0.03139091092855769 0.01320776147621796 0  0.03857339107781042 0.01675295051810485 0  0.001754993120977522 0.02590789105493891 0  0.002288757784711197 0.00412546923654445 0  0.07914382119690884 0.01404430049871201 0  0.001391810103286306 0.01257390899021902 0  0.0419501201923077 0.01614675005432421 0  0.001484375 0.007018229166666667 0  0.001484375 0.02201822916666666 0  0.048
[...]
<PointData  Scalars="pressure"> 
<DataArray  type="Float64"  Name="pressure"  format="ascii">-8.2643758034432782e-06  2.1059028433743081e-03  1.3456506675880876e-03  6.5868782223136516e-04  7.6406352419114236e-04  3.0989291144821978e-04  2.0949137423581792e-03  -7.9523213192171742e-06  2.0948374493307029e-03  2.1953030013539781e-03  2.2214534192646651e-03  1.0281737137292307e-03  1.0282719202724269e-03  1.5435250453768878e-03  1.5435128769361582e-03  5.1235089111834075e-04  5.1263069600578580e-04  1.2857992039734809e-03  1.2856490349576334e-03  2.5419631272136436e-04  2.5500859009753988e-04  1.8014102863195438e-03  1.8007241432602744e-03  7.6945629047226122e-04  7.7005249633149253e-04  3.8375788242388307e-04  3.8374744757662342e-04  8.9935799568023210e-04  1.4145289247972531e-03  1.4145991236666473e-03  1.1571063824928872e-03  1.9298289023038583e-03  1.6722051690039766e-03  6.4141485047517171e-04  -2.8027597468300721e-21  8.9904013857878336e-04  3.1914079772692606e-04  1.1575234076857074e-03  1.2213082477989853e-03  8.3468642050725799e-04  1.6721466271323144e-03  1.9319926057732707e-03  1.4789375716739964e-03  1.8652445386749955e-03  1.2570385932251970e-04  1.2470085149727411e-04  1.3501311469211635e-03  1.0816935018908150e-03  5.1248110889399155e-04  2.2696352324351318e-03  2.0469209385277735e-03  1.6184681601891433e-03  1.7953348732381314e-04  2.3068533594538510e-03  6.4125547315649182e-04  6.4075576189433540e-04  1.7418759832409142e-03  9.5816053805292698e-04  4.1583391414609487e-04  1.9616198820488384e-03  7.3810248462844580e-04  2.2628313171750951e-03  2.1311525126253440e-03  2.1203631082514604e-03  2.2991255105770168e-03  8.8551719325487019e-05  4.4796710442449305e-04  1.9933371922606948e-03  5.7691174832080381e-04  7.0585245367301699e-04  5.7691760573312873e-04  7.2623089765603885e-05  4.4343535392795351e-04  1.7364919421089251e-03  1.7043041693910624e-03  9.6257249219076349e-04  1.0114416857860996e-03  2.0895076696531923e-03  3.1302294049435709e-03  3.0830174640409194e-03  2.0952039114443171e-03  1.7951618572649972e-03  9.0472978075304745e-04  1.3496591545028261e-03  1.2923660686273201e-03  1.2209663710023670e-03  1.4079144844248732e-03  1.4787452324617962e-03  8.3473245428771685e-04  1.8654362908199888e-03  1.1515157064124956e-03  1.2215822853455191e-03  1.6075620656627702e-03  1.5487021487678252e-03  2.4932642283610089e-04  3.1916218298313256e-04  2.4929601511981825e-04  3.1830492278955722e-04  1.1515466639448028e-03  1.6077919526572854e-03  1.5755740530916981e-03  1.0923637139387886e-03  1.0929325065360911e-03  1.9153360594431355e-04  1.9048741980846824e-04  8.8980129221881746e-04  3.6930229298315722e-04  7.8101386301806673e-04  2.2746464245006841e-03  2.4136902598397461e-03  1.8978538988511774e-03  1.8103350967925483e-03  1.9291868962781026e-03  1.2534535182510695e-03  2.1506222657988495e-03  8.0251409839092902e-04  3.5135866422096764e-04  2.3559765716948925e-03  2.2427858120971991e-03  1.5033808267624939e-03  2.1679007416068891e-03  1.4198864860572168e-03  8.3417842530317937e-04  1.5251727287435583e-04  1.6735873915833157e-03  1.4258490644055623e-04  1.0264959111340646e-03  4.8028122374907498e-04  2.0280254328630316e-03  7.0660054918510900e-04  6.7371127068788803e-04  2.2205354218624573e-03  2.1951529157539147e-03  2.3899179676164484e-03  2.3352635609033370e-03  9.6354768837068677e-04  1.7354559130647040e-03  1.3501190296944534e-03  1.3179843940982700e-03  1.0895322869313745e-03  -2.4755116557463293e-07  6.1347544085212465e-05  1.6407320437565177e-03  4.4756812311370713e-04  1.8659259098798005e-03  1.4866298539006990e-03  1.2303164503836518e-03  -2.2704891597930690e-07  1.4781368406166400e-03  2.0839394147428867e-03  1.9958973823658646e-03  1.9986551853228033e-03  5.0556142337159773e-04  1.8571457476358156e-03  5.7694019908297858e-04  6.4142175123593325e-04  7.0583070398898891e-04  5.7656781906665125e-04  5.7578807051485062e-04  6.1609631328970790e-05  1.0898461276083453e-03  1.6102876474558690e-03  3.0791787334229513e-04  2.0508272703160758e-03  1.2784705154167493e-03  1.3501180480646551e-03  1.5349529493161188e-03  1.2343401036620836e-04  1.6753944396135812e-03  9.4336739707106794e-04  1.7566938765650345e-03  8.6686051139548098e-04  8.3539448181377729e-04  2.9619311038579343e-04  1.1984176502060834e-03  1.9861957128011230e-04  9.5776798758615965e-04  1.3822804730820996e-03  4.1584297744134567e-04  2.2246665402276636e-04  1.7686246657709912e-03  4.3195534725455474e-04  7.8639084426103986e-04  4.6415699505360350e-04  3.7334641803221246e-04  7.2212361789191707e-04  2.0071186832385400e-03  1.9635981800247356e-03  1.9134826811073925e-03  7.3807490093116379e-04  6.8976848834396488e-04  1.0303293650301712e-03  2.1048846037191437e-03  2.1001923619182361e-03  9.0877182239384427e-04  1.7912368053766188e-03  1.9855738312602120e-04  1.7086791072732409e-03  9.9128792802419870e-04  9.3251770310524425e-05  4.3588687561520600e-05  5.2725254736650049e-05  1.4564030467459953e-03  1.1837322944599565e-03  1.8973212356852035e-03  1.9459179018853153e-03  1.4284226617041669e-03  1.4466967395624893e-03  2.2204721651138612e-03  5.2858328248324080e-04  2.1958052024834448e-03  2.2562510210887648e-03  2.2374663595386307e-03  2.1548391942924970e-03  2.1721651436824086e-03  2.2678656145897680e-03  2.2759156413159941e-03  6.2529515048845123e-04  1.9718932148045528e-03  1.8334254949619174e-03  8.6357326010542653e-04  1.1246974678016330e-03  1.1307449713960525e-03  1.5691573670247607e-03  9.3127848685791977e-05  8.0775579137522507e-04  1.7495580036036129e-03  2.2933675137694137e-04  1.1315359608730184e-03  2.3096319555201616e-03  2.3327780466326038e-03  9.9570754710603710e-04  5.4121929182717582e-04  5.4469930139212312e-04  6.7363606039015818e-04  5.4423127372767177e-04  2.0219023309623924e-03  2.5002865890563345e-03  2.5492815436697490e-03  6.0918054421238996e-04  6.0914115721989682e-04  7.3835036366911232e-04  6.7362124408178550e-04  6.0918016391737909e-04  3.7820472645939809e-05  8.4405319577661897e-04  1.0596438475419508e-03  2.7422896925141747e-04  1.1764319249039856e-03  1.3088506527460580e-03  1.3914792436431611e-03  1.6478839764736226e-03  1.0598875373131823e-03  1.0442449586585819e-03  9.4641215496986712e-04  3.4465025147072077e-04  1.0549154927079682e-03  1.8558014677083285e-03  1.4516793235973735e-03  1.4627807914918099e-03  3.4844435078566626e-05  7.4698610597726022e-04  4.6522056287926595e-04  1.5245256825522286e-03  1.8166678832922094e-03  1.5731487510422879e-03  1.2541643245746956e-03  2.0762230451744348e-03  2.1252538061967406e-03  2.1311840490293166e-03  2.0646947837343185e-03  9.8939036627828454e-04  1.2559725093165555e-03  1.3328734697797379e-03  1.3861681360227412e-03  1.8341444600632100e-03  9.1703686603517801e-04  1.5786727865248440e-04  2.6654839144429909e-04  1.1927594336269228e-03  1.5162839097068645e-03  2.3920117044293128e-04  1.0441005788161513e-03  4.1605730245233613e-04  2.2670627845927365e-03  2.0902641864612263e-03  2.0690017475376511e-03  2.1180311645184746e-03  2.1540077589781372e-03  2.2308839450382303e-03  2.1725668744874359e-03  4.7795570072828916e-04  2.0237941500049002e-03  3.3395812208046297e-05  1.2661808738498685e-03  2.8798044055627263e-04  3.9283407714627532e-04  7.6492387575130907e-04  5.1474778211121756e-04  8.7306966321066518e-04  1.7272037480391353e-03  1.6792680748820914e-03  1.7224101301472547e-03  2.0975686159092361e-03  2.3786953020243739e-03  2.2765224267092500e-03  3.0224413790040563e-04  2.0934463701600503e-03  1.8875883187456019e-03  1.7937889501000474e-03  4.8075099873016249e-04  2.0441767695820350e-04  1.3786911298275543e-03  1.1936739524915638e-03  2.3136592896059564e-03  2.2805126629725802e-03  1.4793341141024357e-04  2.1019085365836859e-03  1.1066183329683881e-03  2.2073987787632589e-03  2.2075096034770733e-03  9.2599771055987799e-04  9.0623078863395551e-04  1.7740664750683537e-03  8.6188979885308905e-04  9.8643491189653334e-04  1.7136145605049396e-03  1.0567863031527229e-03  1.6489369697347300e-03  1.1066146803818538e-03  8.0855697205705159e-04  1.1607500125333284e-03  1.8292692766132175e-03  1.6446960798873241e-03  1.6108642772730110e-03  1.5416526923454966e-03  1.5756769145044590e-03  1.5115429536818707e-03  1.6048068839031484e-03  4.0663901682008079e-04  3.4556471285315441e-04  1.8274509903431363e-04  2.2456570324265947e-03  2.2485586787553162e-03  2.1744990235987500e-03  1.4195851148581166e-03  2.3254637996034965e-03  1.4997357663719658e-03  1.2882036275588531e-03  3.7048051150208739e-04  4.4805610821722712e-04  7.7030687709193511e-04  4.6415510409718834e-04  3.2901108779538233e-04  1.9356369671913462e-03  1.2830236871550322e-03  1.2527248863684621e-03  1.2311632546574405e-03  1.9896289087790869e-03  2.0333993162364571e-03  6.4679431696777084e-04  4.9637542101957192e-04  6.8979451848142541e-04  8.2945580060231219e-04  1.2452979895550568e-03  1.8978719226386558e-03  5.6085435789499300e-04  1.9216792430895155e-03  1.8712693608578985e-03  2.0073052905113823e-03  3.4696076215462299e-04  7.0591278621386653e-04  8.7134172341500672e-05  1.3147656412022676e-03  1.9615357295624512e-03  3.8040053601405490e-04  7.7383525290311745e-04  1.0694843417583631e-04  1.4172588809604594e-04  1.5420527009117063e-04  2.2557889895370438e-03  8.0253873980164756e-04  1.1646542995978994e-04  1.5675068354676348e-04  1.3093686189906902e-04  1.7683039109057338e-03  9.3129460297697720e-04  2.1156564262341821e-03  1.3660182192696830e-03  3.8114205816418251e-04  2.0358380679260332e-03  1.9617445428407087e-03  1.9784309599470938e-03  1.5838724149401567e-03  1.7043165147151746e-03  1.5341639295182877e-03  7.3833148682492993e-04  5.4470314339031124e-04  4.1633667478643702e-04  6.0939237743572064e-04  1.5825793903591137e-03  9.7668337601751476e-04  1.9158532401530007e-03  1.2217518875072403e-03  2.2830143331811835e-03  2.2753116399898739e-03  2.4148163085969971e-03  2.8641021652545367e-04  1.7712149196404351e-03  1.4020006995120126e-03  2.1214998578259169e-03  1.9440588697944643e-03  1.0763406557389515e-03  1.6399329817911661e-03  2.0816667083454680e-03  1.2221155021504138e-06  1.6825532156747049e-05  5.9422259361753505e-04  6.5642467393326896e-04  2.8708803530101397e-04  1.1889537536367086e-03  4.0378761361800549e-04  1.3443751717813668e-03  1.3470835820227059e-03  1.3186121596816742e-03  1.6704780254170137e-03  1.7080627935300984e-03  7.0662568864432386e-04  1.4869685876997092e-03  1.0784385892251723e-03  1.2340254860874996e-03  1.2236941928168025e-03  1.6176696639136588e-03  2.9692613649241441e-04  1.8490637574834266e-03  1.4837818792997029e-03  1.5166627063063277e-03  1.4791532154424191e-03  1.2615673866048422e-03  1.8830697028627580e-03  5.0896353818902338e-04  5.0902314836866614e-04  4.7448725104205596e-04  2.1401992404600457e-03  8.1354211149187779e-04  2.0858331273435676e-03  1.6419540731114767e-03  1.6013879760728173e-03  3.5111762883610062e-04  2.2280550879047909e-04  9.3081636427873413e-04  1.5114828092187590e-03  3.5166837585674430e-04  1.3177318484868820e-03  5.7693734423593568e-04  4.7989793321936096e-04  5.4480286683696022e-04  8.0297125999083906e-04  9.2750170744179894e-05  1.5751905268416209e-03  8.6680846657232488e-04  1.1245982044759549e-03  1.1889265328909500e-03  9.2882595178459437e-05  2.2238208347212399e-04  4.1585587356866513e-04  8.6687262503357490e-04  1.1248216867758573e-03  2.2604963282023605e-03  -2.2287054760915009e-08  7.0586217444187330e-04  5.7699291468415580e-04  1.8333887033784226e-03  1.8973152801752208e-03  1.9639207854460156e-03  1.7686282290643215e-03  2.1603310399414084e-03  1.8324481607485804e-03  2.9084778885669080e-03  2.3126235482389085e-03  2.4308761070327275e-03  2.8280236199180356e-03  2.3896076139034916e-03  2.0290325696790358e-03  2.0478451617756128e-03  2.1804461190460477e-03  1.3937443809453159e-08  1.6401256104793380e-03  5.7693707322485448e-04  2.3569005179904993e-03  1.4465611899560850e-03  1.4470508009799773e-03  1.7041911066830041e-03  1.3820376801870727e-03  2.5150310159208337e-03  1.5373470386349118e-06  1.3829109050652909e-03  7.9728946127655424e-04  6.0917856961309241e-04  6.4141194654876400e-04  6.7362291604423918e-04  6.4143361778252355e-04  6.7350589641075793e-04  6.0919894139847331e-04  6.1050516114075147e-04  9.9654645555997631e-04  9.9564974151484034e-04  6.7383902159952184e-04  1.7796895205501095e-05  1.1228153859134758e-03  1.7375865845866922e-04  9.4739781936792843e-04  1.1218090908683570e-03  1.0031838483128381e-03  2.0493756714171285e-03  1.5729230349081371e-03  7.4880334007157673e-04  4.4749120212089272e-04  2.7089800914520260e-04  6.1421509886018397e-05  1.0574229948686128e-03  3.3776037989823076e-04  7.5387274847758378e-04  2.1497937749978316e-03  2.0937623649700155e-03  1.3602059625710827e-03  1.3199486399979908e-03  1.7592204004382415e-04  2.2153968492645637e-03  2.1106368880408356e-04  2.3641123586203017e-03  2.1563814475535361e-03  1.4339689243189106e-03  7.2019078864952839e-04  3.8619928726586024e-04  7.7623250568097395e-04  5.3668980558960395e-04  1.1796346590846111e-04  1.6780764204767074e-03  8.7430384278067630e-04  2.0695826463331952e-03  2.2810372213922471e-03  1.8279202717445412e-03  2.7934891305111498e-04  2.6137879306143802e-04  1.1660962360683135e-03  2.0570981358441660e-03  2.0223414866529124e-03  2.0730634962176520e-03  9.2963518751288754e-04  1.2843223263655848e-03  6.0710095468216828e-05  1.3827423947573769e-03  1.5454774544924519e-03  5.4808199153266279e-04  7.4589359070793577e-04  1.6326767242078645e-03  2.6724472756680480e-04  1.7373126256085814e-03  9.5407124350555537e-04  9.4743182771701503e-04  1.7431879297004542e-03  3.1732719576128533e-04  1.9068238217772536e-03  9.8674273757964285e-04  1.2057677656218126e-03  1.8866291181330050e-03  1.2375123471359368e-04  2.2193471246271864e-04  9.7172395225430898e-05  1.6776480902391401e-03  1.6867040122691306e-03  2.0003611754899481e-03  2.5626910904269122e-03  4.3403055848020193e-04  3.2256043085464981e-04  1.1765600877841318e-03  2.0240780099473796e-03  1.3103192622489622e-03  2.2317007839989405e-03  1.3164574765763843e-03  8.3564994703297011e-04  1.5146218877340677e-03  1.4193100031850252e-03  1.7678876837766879e-03  6.7034873947821903e-05  1.1049116315966080e-03  2.0443137523439242e-04  1.0170511411313461e-03  1.8153811396056543e-03  2.4604874264452454e-03  1.2049639367561120e-03  3.0277631981509345e-04  1.5583456188961525e-03  1.7032540522275214e-04  8.9274963181037905e-04  1.9862524099726444e-03  2.1158170618705294e-03  5.8498799468012111e-05  2.6830304107484019e-05  8.8293696555667180e-04  1.3558682023299591e-03  8.0819555056739533e-04  8.6260152393052034e-04  1.1729754408849756e-03  3.9872239931860900e-04  1.6483088443340116e-03  1.8360494271826816e-03  2.2242171218889292e-03  2.1853715355242258e-03  2.2327879651920686e-03  1.8615066970863198e-03  4.9630689779767796e-04  2.0515630370634718e-03  1.9456302152976274e-03  1.9827046204055321e-03  1.9626238503489255e-03  2.7475224108688170e-04  2.2940527213632944e-04  1.2012346366809333e-03  9.1421136479886121e-04  8.3522420696196338e-04  1.3638822995793156e-03  1.2532747375373107e-03  8.5079056622810491e-04  1.1564892522577699e-03  1.1547348259430439e-03  2.2634227622188373e-03  1.7859711258638008e-03  1.2618267328125773e-03  3.4561935329744818e-04  1.5109835824114899e-03  1.4601475433022020e-03  1.2189384972888283e-03  1.4372161785647392e-03  1.6881594058280915e-03  2.1827822022803824e-03  2.1045801106852752e-03  1.3340832425663696e-03  2.2749606181790153e-03  1.4029603855284564e-03  1.3983325482524545e-03  2.2080506899263413e-03  2.1897329141968105e-03  2.1847009580958261e-03  1.0160429666801563e-03  1.0227050154171136e-03  1.7278344677749385e-03  1.3763382688635657e-03  1.0800204181996319e-03  2.2511390302318540e-03  2.1696827625785468e-03  1.2576742475428431e-03  1.9458392745597714e-03  2.1118501885584581e-03  2.1134158562874828e-03  1.5762244994894562e-04  8.8950203655413930e-04  1.5976770001096964e-03  8.5649752190570226e-05  1.0934690421166928e-04  7.6524326496451594e-05  1.0560828454168299e-03  1.0310342136188098e-03  1.0142031262625629e-03  8.8583441388666285e-04  4.2821600344959909e-04  4.3196395689411727e-04  2.0979826268662420e-03  8.9937982456704069e-04  1.8057782939312778e-03  1.7644242474300431e-03  9.3268113228309451e-04  2.0633184585609692e-04  2.4560310813177068e-04  2.4351972741501400e-04  2.1867271769866425e-04  1.7525395336233244e-03  1.7916971398547381e-03  1.7846783288088621e-03  1.2044312249480898e-03  5.3539059488956009e-04  6.2530549994854615e-04  5.5432808753074153e-04  1.9363804607210120e-03  4.3197233316728508e-04  5.2053656932384733e-04  7.2208490537383060e-04  4.5609666973414370e-04  4.2389624841071457e-04  8.1071399592549226e-04  2.0093357456076222e-03  1.9137875828523054e-03  6.8964670237733232e-04  1.9808005522267843e-03  4.7221480178561684e-04  4.8831758586395766e-04  5.0441798393374942e-04  6.9792300239468724e-04  6.7366479008803258e-04  6.4820172012193392e-04  6.0240638236188249e-04  6.6734492606634541e-04  6.3373629923154588e-04  1.4823853181537207e-04  2.1308855317416729e-05  9.7040365855951595e-04  7.5430427431712448e-04  1.7956504693187038e-04  1.1267504345801168e-03  1.4534409866551812e-03  1.4104959049096165e-03  1.9199272934105136e-03  1.4592694019029614e-03  1.6263122943440532e-03  1.6954697504612721e-03  1.2877227108213671e-03  1.9696564719234367e-03  1.8721396518576840e-03  1.5963302761989423e-04  3.9979099301652818e-04  1.5689675028598437e-03  1.5444620602407043e-03  1.3662335864936398e-03  6.8743515790088526e-05  4.3494195698476136e-05  1.8311051842283763e-05  1.0227578050803811e-03  1.8962876419638531e-03  1.1066150859751788e-03  1.1413481460542290e-03  1.1330453974028412e-03  2.3055090022774396e-04  1.2989772918482964e-03  1.0817073034327137e-03  1.1478029918728688e-03  9.7276518629923797e-04  1.7208655037072620e-05  1.4348684592555162e-03  1.4628536989682570e-03  1.4787375996215446e-03  2.3032832585113735e-03  2.1141901233116189e-03  7.5420706797679879e-04  7.2942651339463023e-04  1.8174731356524119e-04  1.7684283644956434e-03  1.3078655347227668e-03  1.7473143279000888e-03  1.1767932550774528e-04  2.2254326478230034e-03  1.6560866758406905e-03  1.5599087138214792e-03  9.2400145024690490e-04  2.2179736697213260e-03  1.0672929100219446e-03  1.0532250434536795e-03  1.0368491676257786e-03  1.9389870244216809e-03  1.8810956178856965e-03  2.2391290518929772e-03  1.6993988867543093e-03  1.8604430988413613e-03  1.4306556116839401e-03  9.7095284865726227e-04  2.0628715513300856e-04  8.2829570361004972e-04  9.9577268316469248e-05  1.7029811585552023e-03  2.1948752084881588e-03  2.2453675128483474e-03  2.1358317413026806e-03  5.3664926291583357e-04  2.2555729152801073e-03  2.1745998548590791e-03  2.1089874396015428e-03  2.0949151933371832e-03  2.2992534046273670e-03  2.1165003497439949e-03  2.2862969693506685e-03  1.6074224595307117e-03  3.9618897615175254e-04  1.8153958744079924e-03  3.2160128588075361e-04  2.2965583641548944e-03  1.7481374145584907e-03  1.7271447174677570e-03  1.1090333548075633e-03  1.5929660315186084e-03  1.5892148890963515e-03  1.5594170849295927e-03  2.5440142519024929e-04  1.3618018501975420e-04  1.7010494282040396e-03  2.4583480454386492e-05  4.9249277321651627e-05  5.5685809090904646e-05  1.1727539193147716e-03  1.1725247599353157e-03  2.3638083544756890e-03  1.2646260876190624e-03  1.9493535904167971e-03  1.1545641929372552e-03  1.8117571878714591e-03  1.8496458532226844e-03  2.8638607011721257e-04  2.7081040087408682e-04  2.2822579728062776e-03  1.4850052961617119e-03  1.8922682690940020e-03  1.0016352293641046e-03  8.4399453926844103e-04  8.7700118320935922e-04  7.5224478091940396e-05  7.2447123593019310e-04  1.1012463659876548e-03  1.1084262591743541e-03  9.2354218529738276e-04  1.0924925287404847e-04  1.4389698518759745e-03  1.9843750659153839e-03  1.7234783296248780e-03  1.3984859195235553e-03  1.3018439342465226e-03  1.3319771336390868e-03  2.0784728348448534e-03  2.0929630779703348e-03  2.1329100797780067e-03  8.1617885323527180e-04  7.886