<?xml version="1.0"?>
<VTKFile type="UnstructuredGrid"  version="0.1"  >
<UnstructuredGrid>
<Piece  NumberOfPoints="1079" NumberOfCells="1944">
<Points>
<DataArray  type="Float64"  NumberOfComponents="3"  format="ascii">0.08500000000000001 0.02 0  0.005 0.02 0  0.005 0.03 0  0 0.03 0  0 0 0  0.005 0 0  0.005 0.01 0  0.08500000000000001 0.01 0  0 0.015 0  0 0.0075 0  0 0.0225 0  0.04500000000000001 0.02 0  0.04500000000000001 0.01 0  0.025 0.01 0  0.025 0.02 0  0.065 0.02 0  0.065 0.01 0  0.035 0.02 0  0.035 0.01 0  0.07500000000000001 0.02 0  0.07500000000000001 0.01 0  0.015 0.02 0  0.015 0.01 0  0.05500000000000001 0.01 0  0.05500000000000001 0.02 0  0.07000000000000001 0.01 0  0.07000000000000001 0.02 0  0.05 0.01 0  0.03 0.01 0  0.03 0.02 0  0.04000000000000001 0.01 0  0.01 0.01 0  0.02 0.02 0  0.06 0.015 0  0.08500000000000001 0.015 0  0.05 0.02 0  0.07250000000000001 0.015 0  0.04000000000000001 0.02 0  0.03750000000000001 0.015 0  0.0525 0.015 0  0.02 0.01 0  0.01 0.02 0  0.0275 0.015 0  0.0125 0.015 0  0.08000000000000002 0.01 0  0.08000000000000002 0.02 0  0.0325 0.014375 0  0.04291666666666667 0.015 0  0.065 0.015 0  0.005 0.005 0  0.005 0.015 0  0.02208333333333334 0.015 0  0.07791666666666668 0.015 0  0.005 0.025 0  0.06 0.01 0  0.06 0.02 0  0.01729166666666667 0.01572916666666667 0  0.04770833333333334 0.01427083333333334 0  0.06875000000000001 0.01625 0  0.008750000000000001 0.01625 0  0.05625000000000001 0.01625 0  0 0.00375 0  0 0.01875 0  0 0.01125 0  0 0.02625 0  0.08145833333333334 0.01354166666666667 0  0.0675 0.01 0  0.0075 0.0125 0  0.0625 0.0175 0  0.0575 0.0125 0  0.0625 0.0125 0  0.08207465277777778 0.01707465277777778 0  0.06767857142857144 0.01321428571428571 0  0.0175 0.01 0  0.01875 0.01291382575757576 0  0.0475 0.02 0  0.04564168086314595 0.01679860519591141 0  0.00296875 0.0125 0  0.0025 0.03 0  0.0025 0 0  0.00296875 0.0175 0  0.01521990740740741 0.0132349537037037 0  0.0497800925925926 0.0167650462962963 0  0.0325 0.02 0  0.03474264705882353 0.01674632352941176 0  0.03750000000000001 0.02 0  0.03025735294117647 0.01674632352941176 0  0.0275 0.02 0  0.0525 0.02 0  0.0125 0.01 0  0.04020833333333334 0.01322916666666667 0  0.03750000000000001 0.01 0  0.0225 0.02 0  0.02479166666666667 0.01677083333333333 0  0.07520833333333335 0.01322916666666667 0  0.07250000000000001 0.01 0  0.07520833333333335 0.01677083333333334 0  0.07250000000000001 0.02 0  0.04020833333333334 0.01677083333333333 0  0.0225 0.01 0  0.02375 0.01262152777777778 0  0.04250000000000001 0.02 0  0.04250000000000001 0.01 0  0.07750000000000001 0.01 0  0.07750000000000001 0.02 0  0.05036151960784314 0.01294424019607843 0  0.0705560064935065 0.01284699675324675 0  0.05458333333333334 0.01291666666666666 0  0.0021875 0.024375 0  0.005 0.0275 0  0.01125 0.0175 0  0.01463848039215686 0.01705575980392157 0  0.01 0.01375 0  0.03625 0.0125 0  0.0021875 0.009375 0  0.05375000000000001 0.0175 0  0.07125000000000001 0.0175 0  0.005 0.0025 0  0.0021875 0.005625 0  0.02655220103578155 0.01234889948210923 0  0.002187499999999999 0.020625 0  0.02979166666666667 0.01302083333333333 0  0.0525 0.01 0  0.07895833333333334 0.0125 0  0.01994277885235332 0.01704213007736944 0  0.07934656179076068 0.01733823814273861 0  0.04505722114764669 0.01295786992263056 0  0.06625 0.0175 0  0.006250000000000001 0.0175 0  0.05750000000000001 0.02 0  0.05875000000000001 0.0175 0  0.005 0.0225 0  0.005 0.0075 0  0.002375 0.027375 0  0.002375 0.002625000000000001 0  0.0475 0.01 0  0.0175 0.02 0  0.0325 0.01 0  0.03375 0.0121875 0  0.04261299435028249 0.01749205508474576 0  0.08500000000000001 0.0125 0  0.08250000000000002 0.01 0  0.02121963399965531 0.01224824108143494 0  0.0675 0.02 0  0.0125 0.02 0  0.02720152243589744 0.0175 0  0.03715165441176471 0.0175 0  0.08500000000000001 0.0175 0  0.0275 0.01 0  0.0025 0.0149560546875 0  0.0075 0.01 0  0.0075 0.02 0  0.06526785714285716 0.0125 0  0.01281031447005516 0.0125 0  0.0625 0.015 0  0.06 0.0125 0  0.05750000000000001 0.01 0  0.0625 0.02 0  0.0625 0.01 0  0.08250000000000002 0.02 0  0.04260103740101855 0.01252623201412851 0  0.02240052247582197 0.01750164767101344 0  0.07293583459427785 0.01238479732953041 0  0.005234374999999999 0.012265625 0  0.03528131980640358 0.01454684009679821 0  0.0325 0.01760027210036557 0  0.02532593822924343 0.01428227733767297 0  0.08009952069819683 0.01527145502895417 0  0.01987282359856536 0.01482587683689801 0  0.04828232595121382 0.01210233572595705 0  0.01671767404878618 0.01789766427404295 0  0.05125 0.01829007549029352 0  0.05247215456215357 0.01288882122882024 0  0.07338729919678716 0.01799385040160642 0  0.03838729919678716 0.01200614959839357 0  0.07717482110586968 0.01780301674207099 0  0.04771860040890012 0.01773306039388322 0  0.03125 0.01160380747126437 0  0.06875000000000001 0.01154265873015873 0  0.07625000000000001 0.01154065860215054 0  0.01625 0.01153997817696946 0  0.068125 0.018125 0  0.05437500000000001 0.015625 0  0.066875 0.015625 0  0.07039794950204951 0.01494384850614853 0  0.05687500000000001 0.018125 0  0.006875 0.015625 0  0.008749999999999999 0.01833333333333333 0  0.010625 0.015625 0  0.05625 0.01416666666666667 0  0.05812500000000001 0.015625 0  0.0449088595298192 0.01494528408816316 0  0 0.016875 0  0 0.013125 0  0.04962452342047931 0.01478673066448802 0  0.0153754765795207 0.01521326933551198 0  0.0771774565913315 0.01322498191305479 0  0.01857756431135545 0.01840228599899994 0  0.04642243568864456 0.01159771400100006 0  0.08125000000000002 0.01155637254901961 0  0.08317650804863432 0.0118234919513657 0  0.08288217288011697 0.01511353252923977 0  0.02837253504384828 0.0117177464035174 0  0.03896057962520807 0.01831163685754031 0  0.01125 0.0114244162490927 0  0.00935910490099115 0.0119067901980177 0  0.02946078431372549 0.01495404411764706 0  0.02875 0.0185829434466942 0  0.002968749999999999 0.0225 0  0.064375 0.016875 0  0.00296875 0.0075 0  0 0.001875 0  0 0.005625 0  0 0.009375 0  0 0.020625 0  0 0.024375 0  0 0.028125 0  0.06062500000000001 0.01812500000000001 0  0.008303571428571429 0.01446428571428572 0  0.01375 0.01865917058160413 0  0.05137790313978056 0.01143372888932909 0  0.04125000000000001 0.01131513063942604 0  0.04101690263896279 0.01844430285842771 0  0.02399563533148224 0.01844349395710867 0  0.08125000000000002 0.01868815426145731 0  0.05354684380692146 0.01145463537600848 0  0.01699195823639423 0.01315138909884649 0  0.07598357371794873 0.015 0  0.04098357371794872 0.015 0  0.003744047619047619 0.00375 0  0.003344630281690141 0.02580853873239437 0  0.04625 0.0187354532243972 0  0.06388392857142858 0.01138392857142858 0  0.06375 0.01375 0  0.05875 0.01375 0  0.06375 0.02 0  0.00622802734375 0.01372802734375 0  0.003630681818181818 0.001369318181818182 0  0.003630681818181818 0.02863068181818182 0  0.06125 0.01625 0  0.06125 0.01125 0  0.05625000000000001 0.01 0  0.05875 0.01125 0  0.06125 0.01375 0  0.08337864763241221 0.0183786476324122 0  0.05213634138653413 0.01674432930673294 0  0.04375000000000001 0.01 0  0.07424178685897437 0.01529258578431373 0  0.03924178685897436 0.01529258578431372 0  0.03410139294454583 0.01843406022904556 0  0.03089860705545417 0.01843406022904556 0  0.02094160484316717 0.01850229584291991 0  0.04375000000000001 0.02 0  0.04437042160883325 0.01820701498672512 0  0.04816311705429156 0.01600061344661149 0  0.07151224904251052 0.0114127410511319 0  0.04395528506193162 0.01639387970349481 0  0.0128750358694518 0.0167500179347259 0  0.02855808448399799 0.01642839899839741 0  0.02812690373330794 0.01340955081400569 0  0.08358500641945087 0.01351822349116885 0  0.05590277777777778 0.01173611111111111 0  0.06683110430364615 0.01164926404662283 0  0.02573206694914602 0.01842532451809762 0  0.01438126661842046 0.01166701193099454 0  0.02384283211216029 0.01526549696571563 0  0.03625 0.02 0  0.004609375000000001 0.0182421875 0  0.003398437500000001 0.01943359375 0  0.001728307845744682 0.01894718251329787 0  0.004377805359085963 0.01656966216675735 0  0.04649673309852075 0.0153889662370871 0  0.03615513600614297 0.01592654988586041 0  0.03316985071935832 0.01598763605018279 0  0.03110111603888768 0.01529816275177977 0  0.01370614113484869 0.0138804542047638 0  0.04930041102671841 0.01842260568883502 0  0.07875000000000001 0.02 0  0.0745395359848485 0.01165101111925709 0  0.03860755698543604 0.01373741558556884 0  0.02605038706571737 0.01573944002207753 0  0.07559826163500957 0.01841729376139847 0  0.04437500000000001 0.01149157931286774 0  0.06874116707361365 0.01454618473032123 0  0.003761917372881356 0.0239307468220339 0  0.003984374999999999 0.01125 0  0.003768503289473684 0.01392539576480263 0  0.001796875 0.0111328125 0  0.003761917372881356 0.008930746822033899 0  0.005 0.00625 0  0.003761917372881355 0.0210692531779661 0  0.06633928571428571 0.01410714285714285 0  0.006484375 0.01125 0  0.08364120589325512 0.01657288979763549 0  0.03576267476503373 0.0184116442851204 0  0.07370875846579374 0.0137848203678562 0  0.06964285714285715 0.01758928571428571 0  0.05520833333333334 0.01833333333333333 0  0.06491071428571429 0.01839285714285714 0  0.0510098951944636 0.01559941474766356 0  0.01786087179886325 0.0115702210443714 0  0.01972197383235524 0.01160576093166696 0  0.01804697593127788 0.01433503795474974 0  0.001644074528704677 0.01642892723865279 0  0.00125 0.03 0  0.001497685185185185 0.001267746913580247 0  0.07315451164202422 0.01643443118912983 0  0.001233906745910645 0.0140625 0  0.01162635071030191 0.01362229857939618 0  0.01528023503083844 0.01845923557506155 0  0.06625 0.02 0  0.07695012019230771 0.01624387078484555 0  0.03139091092855769 0.01320776147621796 0  0.03857339107781042 0.01675295051810485 0  0.001754993120977522 0.02590789105493891 0  0.002288757784711197 0.00412546923654445 0  0.07914382119690884 0.01404430049871201 0  0.001391810103286306 0.01257390899021902 0  0.0419501201923077 0.01614675005432421 0  0.001484375 0.007018229166666667 0  0.001484375 0.02201822916666666 0  0.048
[...]
<PointData  Scalars="pressure"> 
<DataArray  type="Float64"  Name="pressure"  format="ascii">-8.0387790813130585e-05  2.0490866904485889e-02  1.3068252868016640e-02  6.5661590054291452e-03  7.6469269404668000e-03  3.1324218419014373e-03  2.0390885412234511e-02  -7.7349161069513244e-05  2.0387491205131718e-02  2.1373420902230534e-02  2.1612403185053097e-02  1.0006284062454688e-02  1.0007234800821578e-02  1.5021753617714748e-02  1.5021630443000127e-02  4.9862276002931930e-03  4.9889426584204012e-03  1.2513530074209387e-02  1.2512059171689221e-02  2.4738265970132302e-03  2.4817324587017636e-03  1.7531437772264943e-02  1.7524925738549784e-02  7.4884002148494760e-03  7.4942074008659430e-03  3.7347369604400190e-03  3.7346287539333669e-03  8.7526243543699766e-03  1.3766340114968615e-02  1.3767027305656196e-02  1.1261067003073928e-02  1.8781725878894685e-02  1.6274066911849829e-02  6.2422880213710910e-03  -1.3453246784784345e-19  8.7495351645008514e-03  3.1058736117664178e-03  1.1265125050503217e-02  1.1885889563970402e-02  8.1232338344855142e-03  1.6273523380277669e-02  1.8801900942564204e-02  1.4393173047716618e-02  1.8152767214785082e-02  1.2233189110807774e-03  1.2135517648084273e-03  1.3139611705641359e-02  1.0527139418514988e-02  4.9874877905555642e-03  2.2096447752659547e-02  1.9920992757895242e-02  1.5751103799357014e-02  1.7471977657761257e-03  2.2434633844705051e-02  6.2407438073616237e-03  6.2358726145917776e-03  1.6952116209566558e-02  9.3249001125102933e-03  4.0469042430467733e-03  1.9090455897633755e-02  7.1832658128394532e-03  2.2043050913823300e-02  2.0737361151015161e-02  2.0639371551581524e-02  2.2371260740974914e-02  8.6175817537467638e-04  4.3596314527201722e-03  1.9400101302722107e-02  5.6145345114534395e-03  6.8694041175350008e-03  5.6145917175458139e-03  7.0673947586426570e-04  4.3155255486453164e-03  1.6899761694291911e-02  1.6586486245755868e-02  9.3678284661671673e-03  9.8434390412508871e-03  2.0337545640470706e-02  3.0118690714237412e-02  2.9687575565382311e-02  2.0388935078744355e-02  1.7470752176568276e-02  8.8049052932444982e-03  1.3135010719081712e-02  1.2577434106275412e-02  1.1882555509498681e-02  1.3701966590334659e-02  1.4391298405099276e-02  8.1236821616730848e-03  1.8154807839472938e-02  1.1206658920331193e-02  1.1888560234837612e-02  1.5644956503507199e-02  1.5072129934626909e-02  2.4264308937575908e-03  3.1060726537509597e-03  2.4261351820967681e-03  3.0977356233419509e-03  1.1206959767233026e-02  1.5647206396235822e-02  1.5333655776096852e-02  1.0630977176296297e-02  1.0636512933832689e-02  1.8639721604749421e-03  1.8537981888205025e-03  8.6596188367354856e-03  3.5940522177568338e-03  7.6008848709574889e-03  2.2127489000990187e-02  2.3452780950388573e-02  1.8469913722107920e-02  1.7618320612294094e-02  1.8775237803164091e-02  1.2198731967659323e-02  2.0935712795336538e-02  7.8101288000692552e-03  3.4194213076968712e-03  2.2929410921374654e-02  2.1837787687881149e-02  1.4631058809504886e-02  2.1092850297553024e-02  1.3818480021136770e-02  8.1182906726331525e-03  1.4842706182823235e-03  1.6287521933751551e-02  1.3876083323243094e-03  9.9899490511663365e-03  4.6741142326829060e-03  1.9735920880172245e-02  6.8766845407070868e-03  6.5566002460280826e-03  2.1601897271850450e-02  2.1370749188399873e-02  2.3240061346731691e-02  2.2741097200160508e-02  9.3773282816387409e-03  1.6889605894424425e-02  1.3139500298449963e-02  1.2826755287433090e-02  1.0603427540854702e-02  -2.4076525512935750e-06  5.9692596694694373e-04  1.5967787296476656e-02  4.3557455085443657e-03  1.8159207340594490e-02  1.4468034358817935e-02  1.1973557978189468e-02  -2.2084217763736772e-06  1.4385377299124931e-02  2.0281416821383319e-02  1.9425268921944707e-02  1.9450040877047371e-02  4.9201444925211831e-03  1.8074070156262730e-02  5.6148119641168618e-03  6.2423558961643344e-03  6.8691908247867544e-03  5.6111765850900813e-03  5.6035962284509255e-03  5.9947954532741461e-04  1.0606481642535966e-02  1.5671484782140244e-02  2.9966504575541304e-03  1.9960473668788666e-02  1.2442200497120717e-02  1.3139483645335327e-02  1.4938322835136401e-02  1.2012342635064797e-03  1.6305118942061630e-02  9.1809313781419967e-03  1.7096296536341715e-02  8.4363572715545933e-03  8.1301245623096440e-03  2.8825433780641039e-03  1.1663115530770506e-02  1.9329443619701383e-03  9.3210784135827202e-03  1.3452494702493673e-02  4.0469934644021205e-03  2.1650279110730615e-03  1.7212496297343120e-02  4.2037999242527414e-03  7.6532148420564612e-03  4.5171911270436294e-03  3.6334100852857304e-03  7.0277572101149228e-03  1.9533328448330486e-02  1.9109354142869829e-02  1.8622156103801905e-02  7.1829972495678369e-03  6.7128723042921678e-03  1.0027256665731923e-02  2.0483579545645836e-02  2.0441240306637191e-02  8.8442426804798031e-03  1.7432505795762540e-02  1.9323396009261803e-03  1.6629027030104007e-02  9.6472994930159716e-03  9.0748637807862081e-04  4.2416511602424132e-04  5.1310455878014857e-04  1.4173864784980280e-02  1.1520195490781699e-02  1.8465199003914783e-02  1.8938336649139589e-02  1.3901555192172116e-02  1.4079401203193996e-02  2.1601781104868725e-02  5.1441965008473247e-03  2.1377492253368394e-02  2.1969049546252759e-02  2.1787909858270782e-02  2.0977044552651376e-02  2.1134452310314050e-02  2.2063978594480352e-02  2.2141782941332188e-02  6.0854078872015415e-03  1.9190840282812042e-02  1.7842979289052281e-02  8.4043610731052397e-03  1.0945657814317888e-02  1.1004510858350310e-02  1.5271201292676874e-02  9.0627860060916391e-04  7.8611417264457702e-03  1.7026912121444828e-02  2.2318889968159731e-03  1.1012213142730407e-02  2.2484300255950877e-02  2.2685598768921532e-02  9.6903108360152698e-03  5.2671727863583791e-03  5.3010392595800090e-03  6.5558695063112479e-03  5.2964850955343722e-03  1.9678001593202529e-02  2.4321906360666386e-02  2.4746614701762790e-02  5.9285792796279890e-03  5.9281934395179862e-03  7.1856805141718161e-03  6.5557248967698656e-03  5.9285755738573490e-03  3.6802688961707887e-04  8.2143928794189171e-03  1.0312547703002578e-02  2.6687858500053139e-03  1.1449146992462524e-02  1.2737864870176760e-02  1.3542015755675027e-02  1.6037372072821510e-02  1.0314921862296699e-02  1.0162685506982905e-02  9.2105631232302938e-03  3.3541300812217657e-03  1.0266532170564304e-02  1.8060771435415100e-02  1.4127891846858103e-02  1.4235933577163707e-02  3.3909125709684736e-04  7.2697217829240266e-03  4.5275419588819386e-03  1.4836840748219176e-02  1.7680099300497361e-02  1.5310048766162933e-02  1.2205646829849388e-02  2.0203964425899626e-02  2.0679418392607372e-02  2.0737488133644729e-02  2.0092951911728725e-02  9.6288327576222084e-03  1.2223246864478827e-02  1.2971657443760552e-02  1.3490328416323121e-02  1.7850140459339390e-02  8.9246803068434907e-03  1.5363270357632442e-03  2.5940372744034045e-03  1.1608048713515061e-02  1.4756632236449458e-02  2.3278909117042572e-03  1.0161279845969691e-02  4.0490784197275195e-03  2.2051746439378170e-02  2.0345578547626725e-02  2.0136722206235351e-02  2.0616675275051857e-02  2.0968692155941989e-02  2.1719308467825937e-02  2.1137501545113797e-02  4.6514819742224187e-03  1.9697127367879718e-02  3.2499334085367741e-04  1.2322595977645833e-02  2.8026169378109048e-03  3.8230662576054127e-03  7.4442964291127657e-03  5.0095486407960264e-03  8.4967847308479224e-03  1.6809361781452252e-02  1.6342832233167480e-02  1.6762687433680153e-02  2.0412805763959995e-02  2.3105409632481245e-02  2.2218009419981505e-02  2.9414329940725720e-03  2.0374750006746468e-02  1.8370331393549124e-02  1.7457277513338417e-02  4.6786834048925981e-03  1.9893733837730012e-03  1.3417561668376236e-02  1.1616948846735746e-02  2.2508119382997183e-02  2.2207260538494613e-02  1.4396627118419699e-03  2.0458426525487117e-02  1.0769711200591385e-02  2.1491777804317810e-02  2.1476857906903242e-02  9.0118872865268176e-03  8.8195130621561146e-03  1.7265378474235194e-02  8.3879805688332719e-03  9.6000700807710726e-03  1.6677065917244160e-02  1.0284739194227991e-02  1.6047627064086054e-02  1.0769675736773024e-02  7.8689385019497186e-03  1.1296529028601433e-02  1.7802625066173347e-02  1.6006361555417029e-02  1.5677105717756750e-02  1.5003527931129192e-02  1.5334659090760445e-02  1.4710490715565218e-02  1.5618156810089042e-02  3.9574186971202824e-03  3.3630347208604599e-03  1.7784451711953008e-03  2.1847254985875777e-02  2.1891907289640203e-02  2.1169528158960331e-02  1.3815543615419231e-02  2.2654888318161065e-02  1.4595584382947221e-02  1.2536923921256164e-02  3.6055162340480991e-03  4.3604951032553312e-03  7.4966837067870114e-03  4.5171698126353875e-03  3.2019285334533316e-03  1.8837510804226801e-02  1.2486506953545471e-02  1.2191638363284258e-02  1.1981800507188743e-02  1.9362675049600386e-02  1.9787425295336614e-02  6.2946413275031306e-03  4.8307452976361527e-03  6.7131237193165114e-03  8.0723296878776329e-03  1.2119360968114331e-02  1.8470026908392258e-02  5.4582619544395880e-03  1.8701621005045486e-02  1.8211212851497786e-02  1.9534206792603044e-02  3.3766211699255439e-03  6.8699909359467059e-03  8.4796511807656600e-04  1.2795429623661361e-02  1.9090264944515618e-02  3.7020633912043296e-03  7.5310219683250171e-03  1.0407911569749323e-03  1.3792427683434576e-03  1.5007009194721989e-03  2.1968849936123701e-02  7.8103683617578770e-03  1.1334118854360339e-03  1.5254726908640486e-03  1.2742455786848221e-03  1.7209264409171098e-02  9.0634386585677264e-03  2.0587511909386076e-02  1.3294226445500750e-02  3.7092781705808692e-03  1.9812452786780402e-02  1.9092546871655215e-02  1.9255054856232603e-02  1.5414410850970001e-02  1.6586615377954118e-02  1.4930644920397024e-02  7.1855011555441899e-03  5.3010767697657399e-03  4.0518010381511366e-03  5.9306513104019788e-03  1.5401831004786821e-02  9.5051660102885259e-03  1.8645560515876503e-02  1.1890207373114085e-02  2.2228589020175254e-02  2.2164417857367384e-02  2.3467653790180749e-02  2.7873366238209247e-03  1.7237671563232842e-02  1.3644413281758737e-02  2.0650840180051821e-02  1.8919787072812333e-02  1.0475043643860872e-02  1.5960013445426233e-02  2.0258336323843301e-02  1.1894807859427932e-05  1.6361763264947899e-04  5.7830043314707714e-03  6.3883628763154333e-03  2.7939325796297880e-03  1.1571011082592002e-02  3.9296670446571673e-03  1.3083594067947334e-02  1.3109953687161469e-02  1.2832860193922220e-02  1.6257280567575423e-02  1.6623046492031040e-02  6.8769291067033887e-03  1.4471330194660934e-02  1.0495459420237314e-02  1.2009651693456211e-02  1.1909109873310487e-02  1.5743329606572039e-02  2.8896758575425192e-03  1.7995433402607366e-02  1.4440318000879804e-02  1.4760317969649031e-02  1.4395268441092074e-02  1.2277697135345799e-02  1.8326162829978569e-02  4.9532517761808571e-03  4.9538343855683011e-03  4.6177265900113652e-03  2.0833686078922942e-02  7.9174548000499109e-03  2.0300883270409086e-02  1.5979664836740258e-02  1.5584868612014692e-02  3.4170764449806034e-03  2.1683299663573328e-03  9.0587887725376171e-03  1.4709902099298866e-02  3.4224383271021243e-03  1.2824301110261432e-02  5.6147841743313266e-03  4.6703806094920046e-03  5.3020534035652864e-03  7.8145842308417826e-03  9.0261454134511819e-04  1.5329916223030838e-02  8.4358481333431552e-03  1.0944696626824834e-02  1.1570752910718407e-02  9.0389671656380336e-04  2.1642088562454395e-03  4.0471199257919180e-03  8.4364754293125618e-03  1.0946869185257998e-02  2.1988032629015206e-02  -2.1651809790993003e-07  6.8694967434601434e-03  5.6153222728761694e-03  1.7842616724562558e-02  1.8465163946126319e-02  1.9112428971455087e-02  1.7212535373836765e-02  2.1030314028766962e-02  1.7833704586515901e-02  2.7976081697460936e-02  2.2511898714637327e-02  2.3638482214198866e-02  2.7322306817058249e-02  2.3218411175704147e-02  1.9748048040479898e-02  1.9928021638544319e-02  2.1213558909494307e-02  1.3538895508564063e-07  1.5961864688567810e-02  5.6147814761694772e-03  2.2914406602446879e-02  1.4078081635851846e-02  1.4082849715022050e-02  1.6585349526602389e-02  1.3450129167545751e-02  2.4402608891391325e-02  1.4962675651816185e-05  1.3458624579625468e-02  7.7592797535487520e-03  5.9285600892685017e-03  6.2422598625601093e-03  6.5557419097757152e-03  6.2424730653711808e-03  6.5546025297877437e-03  5.9287582417033753e-03  5.9414685197030906e-03  9.6984742434611509e-03  9.6897496378233940e-03  6.5578340244019486e-03  1.7307651619363575e-04  1.0927343814441545e-02  1.6909952233372105e-03  9.2201569796278530e-03  1.0917549550018403e-02  9.7630728986807663e-03  1.9945749033118576e-02  1.5307854578683482e-02  7.2874079031919328e-03  4.3549974114694126e-03  2.6363666676604727e-03  5.9772632113914341e-04  1.0290935620542993e-02  3.2870815044134080e-03  7.3367441800944212e-03  2.0917797161944019e-02  2.0376764707014560e-02  1.3237656763860153e-02  1.2845871514832534e-02  1.7120468003897385e-03  2.1568470274095176e-02  2.0540523364615780e-03  2.3007625229622086e-02  2.0981527098432554e-02  1.3955532013348284e-02  7.0089465588504558e-03  3.7584961444958698e-03  7.5543490398178210e-03  5.2230903438230600e-03  1.1479937922934049e-03  1.6331205901966420e-02  8.5087962636469765e-03  2.0141531116070487e-02  2.2192170434152503e-02  1.7789597966846531e-02  2.7186137240307216e-03  2.5437262640967220e-03  1.1348558675069835e-02  2.0021853063888088e-02  1.9682731734324888e-02  2.0177256172643279e-02  9.0472881140072851e-03  1.2499151197321687e-02  5.9080932934849398e-04  1.3456988029224631e-02  1.5040747672894414e-02  5.3339598223286072e-03  7.2590908737308292e-03  1.5889390859918015e-02  2.6008152777473484e-03  1.6907677406649588e-02  9.2851026062381169e-03  9.2204867073836776e-03  1.6964870287903607e-02  3.0882233431020374e-03  1.8557477345943554e-02  9.6030647441489661e-03  1.1734648543373064e-02  1.8361065654673960e-02  1.2043198879371927e-03  2.1598513783360582e-03  9.4565679020098897e-04  1.6327045850900782e-02  1.6415191516441510e-02  1.9467964672370826e-02  2.4883530452770492e-02  4.2239965403077272e-03  3.1391544097023574e-03  1.1450394687602134e-02  1.9698714546620207e-02  1.2752155958562560e-02  2.1730449133009321e-02  1.2811894801919122e-02  8.1326115675273095e-03  1.4740456745491870e-02  1.3812870182714413e-02  1.7205222255477784e-02  6.5234530053275908e-04  1.0753102484301127e-02  1.9895066769925274e-03  9.8980309243121515e-03  1.7667497445480584e-02  2.3925594849732123e-02  1.1726823948501266e-02  2.9466174822068434e-03  1.5165984593577448e-02  1.6575823671668433e-03  8.6883133222054650e-03  1.9330867631559459e-02  2.0595344182079169e-02  5.6928942468421960e-04  2.6110240222319462e-04  8.5928160952412711e-03  1.3195445333996384e-02  7.8654213826133725e-03  8.3949070670123836e-03  1.1415509954440366e-02  3.8803726416572811e-03  1.6041517918387840e-02  1.7868537431328501e-02  2.1655267704775345e-02  2.1275790962408711e-02  2.1721716421232599e-02  1.8116448552607186e-02  4.8300828925086801e-03  1.9964866174176584e-02  1.8934568964441543e-02  1.9295049886526357e-02  1.9100024072181813e-02  2.6738783976622284e-03  2.2325556624972925e-03  1.1690530428301114e-02  8.8971812974675633e-03  8.1284675665067030e-03  1.3273440781595052e-02  1.2196991780217563e-02  8.2799624063531838e-03  1.1255062844491754e-02  1.1237988181523132e-02  2.2064083575584210e-02  1.7381215713338723e-02  1.2401352391985435e-02  3.3635664754012103e-03  1.4705049310225768e-02  1.4210305278482089e-02  1.1862826923653751e-02  1.3987135156856421e-02  1.6429331292053768e-02  2.1237303445474569e-02  2.0485199862212471e-02  1.2983432921897827e-02  2.2149770955206285e-02  1.3653753324108172e-02  1.3608715659697007e-02  2.1481088705360217e-02  2.1304127161518728e-02  2.1268668770527917e-02  9.8882191268685003e-03  9.9530574142395190e-03  1.6815446839544102e-02  1.3394662987041310e-02  1.0510856710764247e-02  2.1898748265608375e-02  2.1122096795259081e-02  1.2239808061944985e-02  1.8937638942275799e-02  2.0550397932876104e-02  2.0565120410276021e-02  1.5339555135831463e-03  8.6567065510336789e-03  1.5548760187915737e-02  8.3351036656880730e-04  1.0641242644863027e-03  7.4468446267959181e-04  1.0277893023588967e-02  1.0034116387706475e-02  9.8703138597501534e-03  8.6210127453202647e-03  4.1674091078485395e-03  4.2038853832542956e-03  2.0417239845038310e-02  8.7528386622311334e-03  1.7574000918976818e-02  1.7171565175405284e-02  9.0769311768894214e-03  2.0080062447075274e-03  2.3901940116396471e-03  2.3699200567007753e-03  2.1281051165081086e-03  1.7055947662740659e-02  1.7437050548830445e-02  1.7368749774448446e-02  1.1721640428453042e-02  5.2104468315912625e-03  6.0855094020171013e-03  5.3947479855228899e-03  1.8844910895784522e-02  4.2039714030900257e-03  5.0658846158142630e-03  7.0273832367633189e-03  4.4387476922301515e-03  4.1253679684095847e-03  7.8899310141793307e-03  1.9554510656151127e-02  1.8625011981009097e-02  6.7116871982606336e-03  1.9277266192098672e-02  4.5956109387063123e-03  4.7523252360224776e-03  4.9090170522591041e-03  6.7922329901919948e-03  6.5561487377864729e-03  6.3083388723435413e-03  5.8626530465049672e-03  6.4946431071425306e-03  6.1675623688767665e-03  1.4426326891111131e-03  2.0736893832673278e-04  9.4440519966536175e-03  7.3409474364151467e-03  1.7475046642525362e-03  1.1073952660769352e-02  1.4145036783420767e-02  1.3727089480141862e-02  1.8685313403563459e-02  1.4201759962208162e-02  1.5827435477856207e-02  1.6500478616753730e-02  1.2532245199495735e-02  1.9169488926211592e-02  1.8220049865176648e-02  1.5535207986452583e-03  3.8907739527158621e-03  1.5269354191163483e-02  1.5030864621873330e-02  1.3296324664107090e-02  6.6897348727871597e-04  4.2319453584173828e-04  1.7819686194931781e-04  9.9535699769061209e-03  1.8454622797476634e-02  1.0769679709362129e-02  1.1107706840345769e-02  1.1026903118968650e-02  2.2437052500588980e-03  1.2641775190705942e-02  1.0527273704758918e-02  1.1170526504879584e-02  9.4670352355329043e-03  1.6745197466429078e-04  1.3964287931286731e-02  1.4236649584096383e-02  1.4391228127838784e-02  2.2400649748771175e-02  2.0578852958793841e-02  7.3400023285636988e-03  7.0988296135637945e-03  1.7687417460927946e-03  1.7210576150901536e-02  1.2728276945809502e-02  1.7005059551202028e-02  1.1452212062304202e-03  2.1693672204887385e-02  1.6117225855513811e-02  1.5181195895880467e-02  8.9924593980528281e-03  2.1595891396290430e-02  1.0386990596264821e-02  1.0250083057217866e-02  1.0090708736486815e-02  1.8870759571196823e-02  1.8307257820815860e-02  2.1781641543649890e-02  1.6538735132603809e-02  1.8105899839493865e-02  1.3923287653389058e-02  9.4493914182453894e-03  2.0075674607289954e-03  8.0610388992963158e-03  9.6905864280214741e-04  1.6573616131208752e-02  2.1354576525939969e-02  2.1844618998407551e-02  2.0790897575434300e-02  5.2226953881570996e-03  2.1966667434359960e-02  2.1170531281210773e-02  2.0527761364173520e-02  2.0389050922022253e-02  2.2388902170107611e-02  2.0595710508102542e-02  2.2245590345841271e-02  1.5643607405287155e-02  3.8557179203228902e-03  1.7667546765296496e-02  3.1298185241796193e-03  2.2337693197294808e-02  1.7013097394353398e-02  1.6808781630084608e-02  1.0793213877636742e-02  1.5502920991121811e-02  1.5466402652828604e-02  1.5176411105632183e-02  2.4758216950787645e-03  1.3252786867079911e-03  1.6554814608651595e-02  2.3923115656272851e-04  4.7926679000838429e-04  5.4184926627787720e-04  1.1413352555195575e-02  1.1411121942690368e-02  2.2985119741357678e-02  1.2307464359048014e-02  1.8971478022974782e-02  1.1236327161680619e-02  1.7632127774542712e-02  1.8000805707745614e-02  2.7871000643879822e-03  2.6355215431871216e-03  2.2218893793678796e-02  1.4452225301494821e-02  1.8415747040008618e-02  9.7480015395656119e-03  8.2138218526649660e-03  8.5350458949792485e-03  7.3206232274757531e-04  7.0506043018170213e-03  1.0717428830935882e-02  1.0787311227748413e-02  8.9879907954715250e-03  1.0631778924872334e-03  1.4004202707263450e-02  1.9311791567725528e-02  1.6773091825928989e-02  1.3610209200209295e-02  1.2669675942963652e-02  1.2962933998621510e-02  2.0225220167885739e-02  2.0366710546165050e-02  2.0762381744663744e-02  7.9431177980219640e-03  7.675