<?xml version="1.0"?>
<VTKFile type="UnstructuredGrid"  version="0.1"  >
<UnstructuredGrid>
<Piece  NumberOfPoints="1079" NumberOfCells="1944">
<Points>
<DataArray  type="Float64"  NumberOfComponents="3"  format="ascii">0.08500000000000001 0.02 0  0.005 0.02 0  0.005 0.03 0  0 0.03 0  0 0 0  0.005 0 0  0.005 0.01 0  0.08500000000000001 0.01 0  0 0.015 0  0 0.0075 0  0 0.0225 0  0.04500000000000001 0.02 0  0.04500000000000001 0.01 0  0.025 0.01 0  0.025 0.02 0  0.065 0.02 0  0.065 0.01 0  0.035 0.02 0  0.035 0.01 0  0.07500000000000001 0.02 0  0.07500000000000001 0.01 0  0.015 0.02 0  0.015 0.01 0  0.05500000000000001 0.01 0  0.05500000000000001 0.02 0  0.07000000000000001 0.01 0  0.07000000000000001 0.02 0  0.05 0.01 0  0.03 0.01 0  0.03 0.02 0  0.04000000000000001 0.01 0  0.01 0.01 0  0.02 0.02 0  0.06 0.015 0  0.08500000000000001 0.015 0  0.05 0.02 0  0.07250000000000001 0.015 0  0.04000000000000001 0.02 0  0.03750000000000001 0.015 0  0.0525 0.015 0  0.02 0.01 0  0.01 0.02 0  0.0275 0.015 0  0.0125 0.015 0  0.08000000000000002 0.01 0  0.08000000000000002 0.02 0  0.0325 0.014375 0  0.04291666666666667 0.015 0  0.065 0.015 0  0.005 0.005 0  0.005 0.015 0  0.02208333333333334 0.015 0  0.07791666666666668 0.015 0  0.005 0.025 0  0.06 0.01 0  0.06 0.02 0  0.01729166666666667 0.01572916666666667 0  0.04770833333333334 0.01427083333333334 0  0.06875000000000001 0.01625 0  0.008750000000000001 0.01625 0  0.05625000000000001 0.01625 0  0 0.00375 0  0 0.01875 0  0 0.01125 0  0 0.02625 0  0.08145833333333334 0.01354166666666667 0  0.0675 0.01 0  0.0075 0.0125 0  0.0625 0.0175 0  0.0575 0.0125 0  0.0625 0.0125 0  0.08207465277777778 0.01707465277777778 0  0.06767857142857144 0.01321428571428571 0  0.0175 0.01 0  0.01875 0.01291382575757576 0  0.0475 0.02 0  0.04564168086314595 0.01679860519591141 0  0.00296875 0.0125 0  0.0025 0.03 0  0.0025 0 0  0.00296875 0.0175 0  0.01521990740740741 0.0132349537037037 0  0.0497800925925926 0.0167650462962963 0  0.0325 0.02 0  0.03474264705882353 0.01674632352941176 0  0.03750000000000001 0.02 0  0.03025735294117647 0.01674632352941176 0  0.0275 0.02 0  0.0525 0.02 0  0.0125 0.01 0  0.04020833333333334 0.01322916666666667 0  0.03750000000000001 0.01 0  0.0225 0.02 0  0.02479166666666667 0.01677083333333333 0  0.07520833333333335 0.01322916666666667 0  0.07250000000000001 0.01 0  0.07520833333333335 0.01677083333333334 0  0.07250000000000001 0.02 0  0.04020833333333334 0.01677083333333333 0  0.0225 0.01 0  0.02375 0.01262152777777778 0  0.04250000000000001 0.02 0  0.04250000000000001 0.01 0  0.07750000000000001 0.01 0  0.07750000000000001 0.02 0  0.05036151960784314 0.01294424019607843 0  0.0705560064935065 0.01284699675324675 0  0.05458333333333334 0.01291666666666666 0  0.0021875 0.024375 0  0.005 0.0275 0  0.01125 0.0175 0  0.01463848039215686 0.01705575980392157 0  0.01 0.01375 0  0.03625 0.0125 0  0.0021875 0.009375 0  0.05375000000000001 0.0175 0  0.07125000000000001 0.0175 0  0.005 0.0025 0  0.0021875 0.005625 0  0.02655220103578155 0.01234889948210923 0  0.002187499999999999 0.020625 0  0.02979166666666667 0.01302083333333333 0  0.0525 0.01 0  0.07895833333333334 0.0125 0  0.01994277885235332 0.01704213007736944 0  0.07934656179076068 0.01733823814273861 0  0.04505722114764669 0.01295786992263056 0  0.06625 0.0175 0  0.006250000000000001 0.0175 0  0.05750000000000001 0.02 0  0.05875000000000001 0.0175 0  0.005 0.0225 0  0.005 0.0075 0  0.002375 0.027375 0  0.002375 0.002625000000000001 0  0.0475 0.01 0  0.0175 0.02 0  0.0325 0.01 0  0.03375 0.0121875 0  0.04261299435028249 0.01749205508474576 0  0.08500000000000001 0.0125 0  0.08250000000000002 0.01 0  0.02121963399965531 0.01224824108143494 0  0.0675 0.02 0  0.0125 0.02 0  0.02720152243589744 0.0175 0  0.03715165441176471 0.0175 0  0.08500000000000001 0.0175 0  0.0275 0.01 0  0.0025 0.0149560546875 0  0.0075 0.01 0  0.0075 0.02 0  0.06526785714285716 0.0125 0  0.01281031447005516 0.0125 0  0.0625 0.015 0  0.06 0.0125 0  0.05750000000000001 0.01 0  0.0625 0.02 0  0.0625 0.01 0  0.08250000000000002 0.02 0  0.04260103740101855 0.01252623201412851 0  0.02240052247582197 0.01750164767101344 0  0.07293583459427785 0.01238479732953041 0  0.005234374999999999 0.012265625 0  0.03528131980640358 0.01454684009679821 0  0.0325 0.01760027210036557 0  0.02532593822924343 0.01428227733767297 0  0.08009952069819683 0.01527145502895417 0  0.01987282359856536 0.01482587683689801 0  0.04828232595121382 0.01210233572595705 0  0.01671767404878618 0.01789766427404295 0  0.05125 0.01829007549029352 0  0.05247215456215357 0.01288882122882024 0  0.07338729919678716 0.01799385040160642 0  0.03838729919678716 0.01200614959839357 0  0.07717482110586968 0.01780301674207099 0  0.04771860040890012 0.01773306039388322 0  0.03125 0.01160380747126437 0  0.06875000000000001 0.01154265873015873 0  0.07625000000000001 0.01154065860215054 0  0.01625 0.01153997817696946 0  0.068125 0.018125 0  0.05437500000000001 0.015625 0  0.066875 0.015625 0  0.07039794950204951 0.01494384850614853 0  0.05687500000000001 0.018125 0  0.006875 0.015625 0  0.008749999999999999 0.01833333333333333 0  0.010625 0.015625 0  0.05625 0.01416666666666667 0  0.05812500000000001 0.015625 0  0.0449088595298192 0.01494528408816316 0  0 0.016875 0  0 0.013125 0  0.04962452342047931 0.01478673066448802 0  0.0153754765795207 0.01521326933551198 0  0.0771774565913315 0.01322498191305479 0  0.01857756431135545 0.01840228599899994 0  0.04642243568864456 0.01159771400100006 0  0.08125000000000002 0.01155637254901961 0  0.08317650804863432 0.0118234919513657 0  0.08288217288011697 0.01511353252923977 0  0.02837253504384828 0.0117177464035174 0  0.03896057962520807 0.01831163685754031 0  0.01125 0.0114244162490927 0  0.00935910490099115 0.0119067901980177 0  0.02946078431372549 0.01495404411764706 0  0.02875 0.0185829434466942 0  0.002968749999999999 0.0225 0  0.064375 0.016875 0  0.00296875 0.0075 0  0 0.001875 0  0 0.005625 0  0 0.009375 0  0 0.020625 0  0 0.024375 0  0 0.028125 0  0.06062500000000001 0.01812500000000001 0  0.008303571428571429 0.01446428571428572 0  0.01375 0.01865917058160413 0  0.05137790313978056 0.01143372888932909 0  0.04125000000000001 0.01131513063942604 0  0.04101690263896279 0.01844430285842771 0  0.02399563533148224 0.01844349395710867 0  0.08125000000000002 0.01868815426145731 0  0.05354684380692146 0.01145463537600848 0  0.01699195823639423 0.01315138909884649 0  0.07598357371794873 0.015 0  0.04098357371794872 0.015 0  0.003744047619047619 0.00375 0  0.003344630281690141 0.02580853873239437 0  0.04625 0.0187354532243972 0  0.06388392857142858 0.01138392857142858 0  0.06375 0.01375 0  0.05875 0.01375 0  0.06375 0.02 0  0.00622802734375 0.01372802734375 0  0.003630681818181818 0.001369318181818182 0  0.003630681818181818 0.02863068181818182 0  0.06125 0.01625 0  0.06125 0.01125 0  0.05625000000000001 0.01 0  0.05875 0.01125 0  0.06125 0.01375 0  0.08337864763241221 0.0183786476324122 0  0.05213634138653413 0.01674432930673294 0  0.04375000000000001 0.01 0  0.07424178685897437 0.01529258578431373 0  0.03924178685897436 0.01529258578431372 0  0.03410139294454583 0.01843406022904556 0  0.03089860705545417 0.01843406022904556 0  0.02094160484316717 0.01850229584291991 0  0.04375000000000001 0.02 0  0.04437042160883325 0.01820701498672512 0  0.04816311705429156 0.01600061344661149 0  0.07151224904251052 0.0114127410511319 0  0.04395528506193162 0.01639387970349481 0  0.0128750358694518 0.0167500179347259 0  0.02855808448399799 0.01642839899839741 0  0.02812690373330794 0.01340955081400569 0  0.08358500641945087 0.01351822349116885 0  0.05590277777777778 0.01173611111111111 0  0.06683110430364615 0.01164926404662283 0  0.02573206694914602 0.01842532451809762 0  0.01438126661842046 0.01166701193099454 0  0.02384283211216029 0.01526549696571563 0  0.03625 0.02 0  0.004609375000000001 0.0182421875 0  0.003398437500000001 0.01943359375 0  0.001728307845744682 0.01894718251329787 0  0.004377805359085963 0.01656966216675735 0  0.04649673309852075 0.0153889662370871 0  0.03615513600614297 0.01592654988586041 0  0.03316985071935832 0.01598763605018279 0  0.03110111603888768 0.01529816275177977 0  0.01370614113484869 0.0138804542047638 0  0.04930041102671841 0.01842260568883502 0  0.07875000000000001 0.02 0  0.0745395359848485 0.01165101111925709 0  0.03860755698543604 0.01373741558556884 0  0.02605038706571737 0.01573944002207753 0  0.07559826163500957 0.01841729376139847 0  0.04437500000000001 0.01149157931286774 0  0.06874116707361365 0.01454618473032123 0  0.003761917372881356 0.0239307468220339 0  0.003984374999999999 0.01125 0  0.003768503289473684 0.01392539576480263 0  0.001796875 0.0111328125 0  0.003761917372881356 0.008930746822033899 0  0.005 0.00625 0  0.003761917372881355 0.0210692531779661 0  0.06633928571428571 0.01410714285714285 0  0.006484375 0.01125 0  0.08364120589325512 0.01657288979763549 0  0.03576267476503373 0.0184116442851204 0  0.07370875846579374 0.0137848203678562 0  0.06964285714285715 0.01758928571428571 0  0.05520833333333334 0.01833333333333333 0  0.06491071428571429 0.01839285714285714 0  0.0510098951944636 0.01559941474766356 0  0.01786087179886325 0.0115702210443714 0  0.01972197383235524 0.01160576093166696 0  0.01804697593127788 0.01433503795474974 0  0.001644074528704677 0.01642892723865279 0  0.00125 0.03 0  0.001497685185185185 0.001267746913580247 0  0.07315451164202422 0.01643443118912983 0  0.001233906745910645 0.0140625 0  0.01162635071030191 0.01362229857939618 0  0.01528023503083844 0.01845923557506155 0  0.06625 0.02 0  0.07695012019230771 0.01624387078484555 0  0.03139091092855769 0.01320776147621796 0  0.03857339107781042 0.01675295051810485 0  0.001754993120977522 0.02590789105493891 0  0.002288757784711197 0.00412546923654445 0  0.07914382119690884 0.01404430049871201 0  0.001391810103286306 0.01257390899021902 0  0.0419501201923077 0.01614675005432421 0  0.001484375 0.007018229166666667 0  0.001484375 0.02201822916666666 0  0.048
[...]
<PointData  Scalars="pressure"> 
<DataArray  type="Float64"  Name="pressure"  format="ascii">-4.2989604509720931e-05  1.0956175305359037e-02  6.9940605841980691e-03  3.4691938092791760e-03  4.0316848335658264e-03  1.6446450138491075e-03  1.0900844941792430e-02  -4.1365519581005934e-05  1.0899739202573028e-02  1.1424645273965549e-02  1.1556595702880729e-02  5.3496926391379445e-03  5.3502023256404348e-03  8.0311237144467529e-03  8.0310591334081579e-03  2.6658088056734633e-03  2.6672625920480179e-03  6.6901469802416397e-03  6.6893632064462059e-03  1.3226000586283172e-03  1.3268265987266758e-03  9.3729058263633466e-03  9.3693796004943927e-03  4.0035540198490585e-03  4.0066573875703736e-03  1.9967233680004783e-03  1.9966673625527696e-03  4.6794480001648335e-03  7.3599408941083895e-03  7.3603071692591509e-03  6.0205419379657605e-03  1.0041215123536522e-02  8.7006558046694334e-03  3.3373411582823726e-03  -6.7266233923921725e-20  4.6777952451851033e-03  1.6605131237115540e-03  6.0227116381604108e-03  6.3545917973166803e-03  4.3429550435536719e-03  8.7003581845552860e-03  1.0052239244082019e-02  7.6950661272564402e-03  9.7050653318606489e-03  6.5403893527124328e-04  6.4881869796414135e-04  7.0248718819944768e-03  5.6281604468759331e-03  2.6664845141197947e-03  1.1811300048716878e-02  1.0650380537912306e-02  8.4210595040374002e-03  9.3412095923218455e-04  1.1998573101013718e-02  3.3365136683506410e-03  3.3339115726253440e-03  9.0631618301233331e-03  4.9854046110801376e-03  2.1636183083249129e-03  1.0206450896680640e-02  3.8404179504013380e-03  1.1779300863747913e-02  1.1087749195333936e-02  1.1033470448958338e-02  1.1961531751224068e-02  4.6073447303024824e-04  2.3308115903581603e-03  1.0371736449144221e-02  3.0017241181297012e-03  3.6726174080561752e-03  3.0017546465424647e-03  3.7785624970067765e-04  2.3072317930837322e-03  9.0351596473447222e-03  8.8676778257182724e-03  5.0083580911970908e-03  5.2626323036244083e-03  1.0872518731039572e-02  1.6194512777772879e-02  1.5956320493429946e-02  1.0901083778630865e-02  9.3404276445358987e-03  4.7073985166188395e-03  7.0224141231284452e-03  6.7243136778396204e-03  6.3528112082130170e-03  7.3255249805070132e-03  7.6940646421460130e-03  4.3431946447922204e-03  9.7061093775262699e-03  5.9914533146221529e-03  6.3560185969644056e-03  8.3643118335517078e-03  8.0580586823036458e-03  1.2972611448685831e-03  1.6606220562899463e-03  1.2971029868775645e-03  1.6561631663343749e-03  5.9916142778073823e-03  8.3655113069212549e-03  8.1978775015049150e-03  5.6836771660929283e-03  5.6866367058344258e-03  9.9655573520178453e-04  9.9111428386808482e-04  4.6297238140464800e-03  1.9215090572934450e-03  4.0636906008018380e-03  1.1832676889541628e-02  1.2548678225557795e-02  9.8746792449969124e-03  9.4193493145502214e-03  1.0037810948059374e-02  6.5218473242083103e-03  1.1191405169235360e-02  4.1755589288447626e-03  1.8281460610234141e-03  1.2258570170185917e-02  1.1672302872050387e-02  7.8222473194509406e-03  1.1278385373674737e-02  7.3878167299460578e-03  4.3403120726874236e-03  7.9355212423470791e-04  8.7078484891685241e-03  7.4187312396565826e-04  5.3409611944158488e-03  2.4989449147061406e-03  1.0551753514372526e-02  3.6765097958616640e-03  3.5053828279891330e-03  1.1551400141343733e-02  1.1423543190656379e-02  1.2429991528741925e-02  1.2154384983990770e-02  5.0134344802881831e-03  9.0297497351491864e-03  7.0248105141976682e-03  6.8576087492363035e-03  5.6689465276686312e-03  -1.2876379106418164e-06  3.1916814446215485e-04  8.5369032093565913e-03  2.3287348745806781e-03  9.7085599479730667e-03  7.7350896653724278e-03  6.4014623245454531e-03  -1.1810394053279831e-06  7.6908990924248258e-03  1.0843032193613877e-02  1.0385124414997816e-02  1.0398925593849785e-02  2.6304806174590732e-03  9.6629586402284182e-03  3.0018722962497049e-03  3.3373772478745380e-03  3.6725038247532238e-03  2.9999318474484425e-03  2.9958768546883003e-03  3.2053256329718434e-04  5.6705794147377366e-03  8.3784940093684403e-03  1.6021189523829792e-03  1.0671094385569692e-02  6.6520135010378857e-03  7.0248035759582156e-03  7.9865205779079910e-03  6.4223015780870993e-04  8.7172535676105674e-03  4.9084342661152407e-03  9.1402531987441072e-03  4.5103606672766442e-03  4.3466391093643997e-03  1.5411136675213643e-03  6.2354895388825899e-03  1.0334275467696757e-03  4.9833617808791811e-03  7.1921488018506351e-03  2.1636657271231793e-03  1.1575067297745600e-03  9.2023536834255782e-03  2.2474998622019006e-03  4.0916677572737934e-03  2.4150487591381746e-03  1.9425510673959537e-03  3.7572780831427273e-03  1.0443205079294166e-02  1.0216650313463128e-02  9.9560348884521876e-03  3.8402743997316942e-03  3.5889306041047399e-03  5.3609070657853640e-03  1.0951567266388434e-02  1.0928034930834015e-02  4.7284296339074518e-03  9.3199926315242609e-03  1.0331040938255523e-03  8.8904313853153793e-03  5.1577699216085217e-03  4.8518593551090671e-04  2.2678502835051125e-04  2.7432905407923227e-04  7.5778166701048963e-03  6.1590799387866895e-03  9.8720322084401568e-03  1.0124936053393048e-02  7.4322313965208848e-03  7.5273135255591152e-03  1.1551204230010435e-02  2.7502659783150141e-03  1.1427041827480881e-02  1.1742453451743949e-02  1.1645126980974099e-02  1.1213423451891276e-02  1.1300600101118908e-02  1.1798057186372566e-02  1.1839860131801555e-02  3.2534682823741226e-03  1.0260010964031197e-02  9.5394752943450123e-03  4.4932556425899862e-03  5.8519143938129351e-03  5.8833796990378582e-03  8.1644890557578155e-03  4.8454070551467770e-04  4.2028320620501654e-03  9.1031411127964982e-03  1.1932527130547549e-03  5.8874964046558426e-03  1.2019032736201189e-02  1.2133108552380322e-02  5.1807654420286953e-03  2.8160127947330299e-03  2.8341193021940176e-03  3.5049918135992559e-03  2.8316842931273836e-03  1.0520337217753500e-02  1.3006361315788291e-02  1.3247341608679679e-02  3.1696224123215653e-03  3.1694168287592400e-03  3.8417082859255108e-03  3.5049146159053246e-03  3.1696204324108183e-03  1.9677205579005371e-04  4.3916915102020339e-03  5.5134332344190032e-03  1.4268318931561792e-03  6.1210952149524066e-03  6.8100849649880262e-03  7.2400103571232778e-03  8.5741105368358980e-03  5.5147018314263222e-03  5.4333115661560826e-03  4.9242764190172116e-03  1.7932403945611298e-03  5.4888314462566892e-03  9.6559069144558068e-03  7.5532383343493992e-03  7.6110007173853036e-03  1.8129449277307273e-04  3.8866402670616942e-03  2.4205826338026797e-03  7.9322656690036658e-03  9.4523385333129106e-03  8.1852574175482612e-03  6.5255450067276078e-03  1.0802259770254757e-02  1.1056916387430584e-02  1.1087865727180962e-02  1.0742589748197503e-02  5.1478968470514514e-03  6.5349538489917359e-03  6.9350781931765528e-03  7.2123763477219974e-03  9.5432596505125693e-03  4.7714338684580523e-03  8.2138608675164082e-04  1.3868689446443719e-03  6.2060491281366575e-03  7.8893832065682103e-03  1.2445784076492790e-03  5.4325602035815842e-03  2.1647806566054144e-03  1.1792700110515178e-02  1.0876633676202346e-02  1.0765490773600015e-02  1.1021336874471920e-02  1.1209029513125130e-02  1.1609672482743496e-02  1.1302462889855737e-02  2.4868449690772752e-03  1.0530370946020114e-02  1.7375721655946521e-04  6.5880690977155997e-03  1.4983823198593837e-03  2.0439474538631597e-03  3.9799729730171608e-03  2.6782785989383725e-03  4.5426673640440694e-03  8.9868305479155544e-03  8.7374123829777484e-03  8.9618829284276690e-03  1.0913614396165764e-02  1.2365473578681490e-02  1.1861979841192158e-02  1.5725978944291970e-03  1.0892712637129818e-02  9.8213520919651787e-03  9.3332542330686556e-03  2.5013884999948717e-03  1.0635960181682416e-03  7.1734727718105809e-03  6.2108074496395162e-03  1.2035926318220464e-02  1.1869213162096676e-02  7.6970251243229672e-04  1.0937092898617509e-02  5.7578471314442010e-03  1.1487750606134734e-02  1.1484085440216481e-02  4.8180578478758543e-03  4.7152083667456376e-03  9.2306472871924866e-03  4.4844972197815415e-03  5.1325193386081843e-03  8.9161127996335247e-03  5.4985654943840384e-03  8.5795912648199656e-03  5.7578281482165428e-03  4.2070005862547780e-03  6.0395005993315459e-03  9.5178751075517438e-03  8.5575274024540775e-03  8.3814966908067334e-03  8.0213806980077192e-03  8.1984132903413342e-03  7.8647150096790349e-03  8.3499800408713531e-03  2.1157763373913304e-03  1.7979997208927370e-03  9.5082916553698553e-04  1.1682344754599727e-02  1.1701791199041125e-02  1.1316021452664660e-02  7.3862477827900440e-03  1.2106019165703854e-02  7.8032816022619916e-03  6.7026558384510855e-03  1.9276388001487588e-03  2.3312740321405367e-03  4.0079811228632585e-03  2.4150381710937156e-03  1.7118683027974699e-03  1.0071238861949237e-02  6.6757027177812610e-03  6.5180555390271363e-03  6.4058686813088187e-03  1.0352087335183273e-02  1.0579506164295462e-02  3.3653310265980476e-03  2.5826848724864702e-03  3.5890655493525216e-03  4.3157397860141139e-03  6.4794131170565136e-03  9.8747564674911310e-03  2.9181757474453789e-03  9.9986017344146881e-03  9.7363631177780144e-03  1.0443928142716273e-02  1.8052634986834356e-03  3.6729312359662148e-03  4.5335951204818274e-04  6.8408611316872290e-03  1.0206179619241400e-02  1.9792548669118823e-03  4.0263395636166181e-03  5.5645301667534637e-04  7.3740214463565009e-04  8.0233560268689491e-04  1.1741157664915989e-02  4.1756870757823699e-03  6.0597102479329498e-04  8.1557953793892711e-04  6.8126642017762797e-04  9.2006555972540954e-03  4.8456185087383105e-03  1.1007375753840655e-02  7.1075340006397508e-03  1.9831126230510578e-03  1.0592535133101849e-02  1.0207332581562647e-02  1.0294184023186544e-02  8.2410532984554287e-03  8.8677444373108111e-03  7.9824154670240059e-03  3.8416111889994871e-03  2.8341393232555016e-03  2.1662352209027630e-03  3.1707272907804426e-03  8.2343266189033940e-03  5.0817807948981917e-03  9.9684577298576760e-03  6.3569001684747398e-03  1.1881436802649713e-02  1.1844218589750372e-02  1.2555596642862403e-02  1.4902126079184954e-03  9.2158222023762410e-03  7.2947550111613722e-03  1.1039493453330539e-02  1.0115141918535497e-02  5.6003086904145537e-03  8.5327463167347520e-03  1.0830952135043830e-02  6.3590648677915162e-06  8.7511491146578468e-05  3.0917939614480234e-03  3.4154382413878392e-03  1.4937392009236694e-03  6.1862476873200713e-03  2.1009398032112857e-03  6.9949229722108515e-03  7.0090153941322940e-03  6.8608739011957222e-03  8.6916752540703440e-03  8.8872292813430721e-03  3.6766405751319248e-03  7.7368519566379801e-03  5.6112240632807077e-03  6.4207600505817334e-03  6.3670061293553291e-03  8.4169040112523890e-03  1.5449273167066051e-03  9.6209120059304841e-03  7.7202714702817778e-03  7.8913539246624163e-03  7.6961872924444300e-03  6.5640646671492478e-03  9.7977901044476318e-03  2.6481815447725226e-03  2.6484923401831522e-03  2.4687982453184746e-03  1.1137016449074289e-02  4.2329388902906774e-03  1.0853160321061251e-02  8.5432574791924239e-03  8.3321871475445074e-03  1.8268921658099919e-03  1.1592709285686406e-03  4.8431313101908310e-03  7.8644011975894258e-03  1.8297582624198158e-03  6.8562956575929576e-03  3.0018574406053171e-03  2.4969497399231167e-03  2.8346597675963127e-03  4.1779392055111579e-03  4.8257858015434682e-04  8.1958801061803935e-03  4.5100891950380119e-03  5.8513991660428038e-03  6.1861077890662444e-03  4.8326590304636390e-04  1.1570677297752028e-03  2.1637330729254371e-03  4.5104237644848994e-03  5.8525613510657382e-03  1.1758584845069893e-02  -1.1586371151702867e-07  3.6726674772639824e-03  3.0021458797927138e-03  9.5392826462834517e-03  9.8720072626937057e-03  1.0218311725236785e-02  9.2023733868876467e-03  1.1241953394323906e-02  9.5344529303796974e-03  1.5044632149445559e-02  1.2034192089633263e-02  1.2643037566311001e-02  1.4661123030140489e-02  1.2423944044371374e-02  1.0557612619828667e-02  1.0654669698826761e-02  1.1343295053539596e-02  7.2453152853130713e-08  8.5337423951725670e-03  3.0018560148968722e-03  1.2257028125449314e-02  7.5266081474368455e-03  7.5291564622114917e-03  8.8670798906731445e-03  7.1908848438441619e-03  1.3066269135389059e-02  7.9992477624459144e-06  7.1954275700619845e-03  4.1483739961082301e-03  3.1696121451450419e-03  3.3373260752369164e-03  3.5049235059439335e-03  3.3374394237987979e-03  3.5043145034690374e-03  3.1697181139277684e-03  3.1765139982052994e-03  5.1851301284561680e-03  5.1804650270847958e-03  3.5060450824683136e-03  9.2567004441856628e-05  5.8421223988005897e-03  9.0407358589077321e-04  4.9294052599450121e-03  5.8368863098882708e-03  5.2196659115361513e-03  1.0663382655587597e-02  8.1840836721912783e-03  3.8960956823133166e-03  2.3283347753211415e-03  1.4095000632028119e-03  3.1957372110590212e-04  5.5018782874137993e-03  1.7573927987332013e-03  3.9224724116993905e-03  1.1184481503833155e-02  1.0894075547506543e-02  7.0772911424603147e-03  6.8678289190266389e-03  9.1532919693559543e-04  1.1529061175455919e-02  1.0981757241034099e-03  1.2300660110556628e-02  1.1218656761064547e-02  7.4610891795995615e-03  3.7472213309337949e-03  2.0094260407500725e-03  4.0388118855799893e-03  2.7924451450779338e-03  6.1376619934497311e-04  8.7312043781375068e-03  4.5490890239853060e-03  1.0768289240062449e-02  1.1866592287732361e-02  9.5108830278632841e-03  1.4534715072438255e-03  1.3599710000159783e-03  6.0673174659772152e-03  1.0703816957177021e-02  1.0522743611894328e-02  1.0786891285364674e-02  4.8369841545466150e-03  6.6824611522868513e-03  3.1587384741132063e-04  7.1945516724252782e-03  8.0412804755029682e-03  2.8517197585013259e-03  3.8809561983977757e-03  8.4949902308852562e-03  1.3904923595163148e-03  9.0394108710632522e-03  4.9641275679479843e-03  4.9295818885837315e-03  9.0699843353731855e-03  1.6510767363073324e-03  9.9214215533527609e-03  5.1341206974217304e-03  6.2737331934192460e-03  9.8163796648897544e-03  6.4388028820658251e-04  1.1547390795559737e-03  5.0558908347419856e-04  8.7289779939473539e-03  8.7761002107900523e-03  1.0408151423436755e-02  1.3319003226519476e-02  2.2582975170991962e-03  1.6783059789076383e-03  6.1217621630669482e-03  1.0531535121145569e-02  6.8177258905074345e-03  1.1614770105976715e-02  6.8496639436952146e-03  4.3479685251088650e-03  7.8807354174034311e-03  7.3848173648760427e-03  9.1984921471960270e-03  3.4877784450754358e-04  5.7489672642375396e-03  1.0636672866233170e-03  5.2918189054299153e-03  9.4456224826102598e-03  1.2796869767120633e-02  6.2695503644303215e-03  1.5753682403660840e-03  8.1082355664468860e-03  8.8620999100500202e-04  4.6450645738896476e-03  1.0334798174412645e-02  1.1009876039838995e-02  3.0436841309936300e-04  1.3959754909391060e-04  4.5940084180384711e-03  7.0547223811730231e-03  4.2051201425720563e-03  4.4882003778737882e-03  6.1031112377633494e-03  2.0745851679658763e-03  8.5763240804165499e-03  9.5531336418086185e-03  1.1575208085319307e-02  1.1372711911859415e-02  1.1615305864624720e-02  9.6856324442595957e-03  2.5823294893703580e-03  1.0674188548596355e-02  1.0123182565568720e-02  1.0315996931471122e-02  1.0211621030085450e-02  1.4295545340898945e-03  1.1936091859692435e-03  6.2501465338999909e-03  4.7567322496417904e-03  4.3457531867138891e-03  7.0964209323502083e-03  6.5209170383995364e-03  4.4267469410663694e-03  6.0173314132364181e-03  6.0082028457137896e-03  1.1786433689752599e-02  9.2925831052000449e-03  6.5975121663465301e-03  1.7982840177388510e-03  7.8618051617242966e-03  7.5972993198600083e-03  6.3422617430332322e-03  7.4779851238941809e-03  8.7836663297083221e-03  1.1355716032629116e-02  1.0951199033735802e-02  6.9413732404577612e-03  1.1839407012759517e-02  7.2997484310786545e-03  7.2756695511209208e-03  1.1486625406820045e-02  1.1391663612485135e-02  1.1369065107035179e-02  5.2865732328584315e-03  5.3212372200211267e-03  8.9900981516177637e-03  7.1612304885181471e-03  5.6194551964857831e-03  1.1710372825682290e-02  1.1290814121948487e-02  6.5438080954259405e-03  1.0124544867387350e-02  1.0987552737288828e-02  1.0995562975960355e-02  8.2011509393401004e-04  4.6281667817603782e-03  8.3128804364539753e-03  4.4563380338483047e-04  5.6893017655355708e-04  3.9814906461208542e-04  5.4949053183653545e-03  5.3645744825313590e-03  5.2770004159970949e-03  4.6090837271542326e-03  2.2280438893485018e-03  2.2475450886111068e-03  1.0915875771727545e-02  4.6795620590991058e-03  9.3956471049737606e-03  9.1804846280816987e-03  4.8528324229514938e-03  1.0735566602001537e-03  1.2778880420621617e-03  1.2670484384256376e-03  1.1377665318823053e-03  9.1186593529516153e-03  9.3224049629329897e-03  9.2858872137575512e-03  6.2667788370391418e-03  2.7856853557040721e-03  3.2535223356681678e-03  2.8842189779862320e-03  1.0075150855241907e-02  2.2475898295017320e-03  2.7083979783703235e-03  3.7570773736057546e-03  2.3731101718270924e-03  2.2055675387034055e-03  4.2182238402786940e-03  1.0454636212493248e-02  9.9575917924006989e-03  3.5882969718777115e-03  1.0306287457191558e-02  2.4569744705509014e-03  2.5407590200285349e-03  2.6245313452917187e-03  3.6313594188654317e-03  3.5051412022555650e-03  3.3726540337465148e-03  3.1343758997887175e-03  3.4722582760022486e-03  3.2973895776046390e-03  7.7129021792393172e-04  1.1086935121887814e-04  5.0491069886651673e-03  3.9247186124076582e-03  9.3428510464876435e-04  5.8911348456988201e-03  7.5624045172423956e-03  7.3389564427296453e-03  9.9896830210862205e-03  7.5927304841113203e-03  8.4618711642498387e-03  8.8217034290811493e-03  6.7001539916660448e-03  1.0248483697503693e-02  9.7409887395174359e-03  8.3057585930081720e-04  2.0801455960479547e-03  8.1635013526628573e-03  8.0359969696802078e-03  7.1086551589608178e-03  3.5766795985738416e-04  2.2628025679686752e-04  9.5272205016933218e-05  5.3215115835062218e-03  9.8665171539838638e-03  5.7578302650456220e-03  5.9385503539489933e-03  5.8953501559134676e-03  1.1995700639678504e-03  6.7587125555248441e-03  5.6282322495766991e-03  5.9721357013371949e-03  5.0613944196391874e-03  8.9532142061372387e-05  7.4657699610532055e-03  7.6113817298659242e-03  7.6940259759255246e-03  1.1980200580178001e-02  1.1001234363415191e-02  3.9242130732253643e-03  3.7952757752429812e-03  9.4563941758462244e-04  9.2013297309347913e-03  6.8049591256572999e-03  9.0914625584953262e-03  6.1228590829755811e-04  1.1588558776038748e-02  8.6167964565668238e-03  8.1163682722208488e-03  4.8076710778435974e-03  1.1543090739170902e-02  5.5532324685957724e-03  5.4800365096382420e-03  5.3948304520537995e-03  1.0088840756846922e-02  9.7876001481767751e-03  1.1647822956788234e-02  8.8421518444367388e-03  9.6800460243142289e-03  7.4438499612977469e-03  5.0519631042908117e-03  1.0733231392153254e-03  4.3097035248838809e-03  5.1810121415697805e-04  8.8607955518250053e-03  1.1418527003702151e-02  1.1680886629531616e-02  1.1114216611245403e-02  2.7922340969923397e-03  1.1740012977314303e-02  1.1316551803646364e-02  1.0974042529632707e-02  1.0900356697857185e-02  1.1966574080381659e-02  1.1011762906796301e-02  1.1894553415100552e-02  8.3635879754446561e-03  2.0614037130521875e-03  9.4456742118178890e-03  1.6733150910791528e-03  1.1945875947447917e-02  9.0957524469003747e-03  8.9865219066584991e-03  5.7704125961516774e-03  8.2883709989631620e-03  8.2688502930475406e-03  8.1138101898894522e-03  1.3236670016858855e-03  7.0854914582191666e-04  8.8507440872278974e-03  1.2790582412178580e-04  2.5624081521522017e-04  2.8971569709888807e-04  6.1019582441754700e-03  6.1007657987397421e-03  1.2293911648142366e-02  6.5799793123631437e-03  1.0142733900129522e-02  6.0073149216670280e-03  9.4267398972243486e-03  9.6238630650439666e-03  1.4900865684014301e-03  1.4090461553217554e-03  1.1876870302782601e-02  7.7266372729564393e-03  9.8456678466635125e-03  5.2116082757574841e-03  4.3913862695959104e-03  4.5631232674555895e-03  3.9139305393768930e-04  3.7694929406600114e-03  5.7298957564728293e-03  5.7672552733524307e-03  4.8052817347762821e-03  5.6842311094724930e-04  7.4871098317953995e-03  1.0324816563120426e-02  8.9674431517896697e-03  7.2764677861263186e-03  6.7736285830531547e-03  6.9304144081967899e-03  1.0813797938949880e-02  1.0889314487634747e-02  1.1098993340144052e-02  4.2466586349858889e-03  4.103