<?xml version="1.0"?>
<VTKFile type="UnstructuredGrid"  version="0.1"  >
<UnstructuredGrid>
<Piece  NumberOfPoints="1079" NumberOfCells="1944">
<Points>
<DataArray  type="Float64"  NumberOfComponents="3"  format="ascii">0.08500000000000001 0.02 0  0.005 0.02 0  0.005 0.03 0  0 0.03 0  0 0 0  0.005 0 0  0.005 0.01 0  0.08500000000000001 0.01 0  0 0.015 0  0 0.0075 0  0 0.0225 0  0.04500000000000001 0.02 0  0.04500000000000001 0.01 0  0.025 0.01 0  0.025 0.02 0  0.065 0.02 0  0.065 0.01 0  0.035 0.02 0  0.035 0.01 0  0.07500000000000001 0.02 0  0.07500000000000001 0.01 0  0.015 0.02 0  0.015 0.01 0  0.05500000000000001 0.01 0  0.05500000000000001 0.02 0  0.07000000000000001 0.01 0  0.07000000000000001 0.02 0  0.05 0.01 0  0.03 0.01 0  0.03 0.02 0  0.04000000000000001 0.01 0  0.01 0.01 0  0.02 0.02 0  0.06 0.015 0  0.08500000000000001 0.015 0  0.05 0.02 0  0.07250000000000001 0.015 0  0.04000000000000001 0.02 0  0.03750000000000001 0.015 0  0.0525 0.015 0  0.02 0.01 0  0.01 0.02 0  0.0275 0.015 0  0.0125 0.015 0  0.08000000000000002 0.01 0  0.08000000000000002 0.02 0  0.0325 0.014375 0  0.04291666666666667 0.015 0  0.065 0.015 0  0.005 0.005 0  0.005 0.015 0  0.02208333333333334 0.015 0  0.07791666666666668 0.015 0  0.005 0.025 0  0.06 0.01 0  0.06 0.02 0  0.01729166666666667 0.01572916666666667 0  0.04770833333333334 0.01427083333333334 0  0.06875000000000001 0.01625 0  0.008750000000000001 0.01625 0  0.05625000000000001 0.01625 0  0 0.00375 0  0 0.01875 0  0 0.01125 0  0 0.02625 0  0.08145833333333334 0.01354166666666667 0  0.0675 0.01 0  0.0075 0.0125 0  0.0625 0.0175 0  0.0575 0.0125 0  0.0625 0.0125 0  0.08207465277777778 0.01707465277777778 0  0.06767857142857144 0.01321428571428571 0  0.0175 0.01 0  0.01875 0.01291382575757576 0  0.0475 0.02 0  0.04564168086314595 0.01679860519591141 0  0.00296875 0.0125 0  0.0025 0.03 0  0.0025 0 0  0.00296875 0.0175 0  0.01521990740740741 0.0132349537037037 0  0.0497800925925926 0.0167650462962963 0  0.0325 0.02 0  0.03474264705882353 0.01674632352941176 0  0.03750000000000001 0.02 0  0.03025735294117647 0.01674632352941176 0  0.0275 0.02 0  0.0525 0.02 0  0.0125 0.01 0  0.04020833333333334 0.01322916666666667 0  0.03750000000000001 0.01 0  0.0225 0.02 0  0.02479166666666667 0.01677083333333333 0  0.07520833333333335 0.01322916666666667 0  0.07250000000000001 0.01 0  0.07520833333333335 0.01677083333333334 0  0.07250000000000001 0.02 0  0.04020833333333334 0.01677083333333333 0  0.0225 0.01 0  0.02375 0.01262152777777778 0  0.04250000000000001 0.02 0  0.04250000000000001 0.01 0  0.07750000000000001 0.01 0  0.07750000000000001 0.02 0  0.05036151960784314 0.01294424019607843 0  0.0705560064935065 0.01284699675324675 0  0.05458333333333334 0.01291666666666666 0  0.0021875 0.024375 0  0.005 0.0275 0  0.01125 0.0175 0  0.01463848039215686 0.01705575980392157 0  0.01 0.01375 0  0.03625 0.0125 0  0.0021875 0.009375 0  0.05375000000000001 0.0175 0  0.07125000000000001 0.0175 0  0.005 0.0025 0  0.0021875 0.005625 0  0.02655220103578155 0.01234889948210923 0  0.002187499999999999 0.020625 0  0.02979166666666667 0.01302083333333333 0  0.0525 0.01 0  0.07895833333333334 0.0125 0  0.01994277885235332 0.01704213007736944 0  0.07934656179076068 0.01733823814273861 0  0.04505722114764669 0.01295786992263056 0  0.06625 0.0175 0  0.006250000000000001 0.0175 0  0.05750000000000001 0.02 0  0.05875000000000001 0.0175 0  0.005 0.0225 0  0.005 0.0075 0  0.002375 0.027375 0  0.002375 0.002625000000000001 0  0.0475 0.01 0  0.0175 0.02 0  0.0325 0.01 0  0.03375 0.0121875 0  0.04261299435028249 0.01749205508474576 0  0.08500000000000001 0.0125 0  0.08250000000000002 0.01 0  0.02121963399965531 0.01224824108143494 0  0.0675 0.02 0  0.0125 0.02 0  0.02720152243589744 0.0175 0  0.03715165441176471 0.0175 0  0.08500000000000001 0.0175 0  0.0275 0.01 0  0.0025 0.0149560546875 0  0.0075 0.01 0  0.0075 0.02 0  0.06526785714285716 0.0125 0  0.01281031447005516 0.0125 0  0.0625 0.015 0  0.06 0.0125 0  0.05750000000000001 0.01 0  0.0625 0.02 0  0.0625 0.01 0  0.08250000000000002 0.02 0  0.04260103740101855 0.01252623201412851 0  0.02240052247582197 0.01750164767101344 0  0.07293583459427785 0.01238479732953041 0  0.005234374999999999 0.012265625 0  0.03528131980640358 0.01454684009679821 0  0.0325 0.01760027210036557 0  0.02532593822924343 0.01428227733767297 0  0.08009952069819683 0.01527145502895417 0  0.01987282359856536 0.01482587683689801 0  0.04828232595121382 0.01210233572595705 0  0.01671767404878618 0.01789766427404295 0  0.05125 0.01829007549029352 0  0.05247215456215357 0.01288882122882024 0  0.07338729919678716 0.01799385040160642 0  0.03838729919678716 0.01200614959839357 0  0.07717482110586968 0.01780301674207099 0  0.04771860040890012 0.01773306039388322 0  0.03125 0.01160380747126437 0  0.06875000000000001 0.01154265873015873 0  0.07625000000000001 0.01154065860215054 0  0.01625 0.01153997817696946 0  0.068125 0.018125 0  0.05437500000000001 0.015625 0  0.066875 0.015625 0  0.07039794950204951 0.01494384850614853 0  0.05687500000000001 0.018125 0  0.006875 0.015625 0  0.008749999999999999 0.01833333333333333 0  0.010625 0.015625 0  0.05625 0.01416666666666667 0  0.05812500000000001 0.015625 0  0.0449088595298192 0.01494528408816316 0  0 0.016875 0  0 0.013125 0  0.04962452342047931 0.01478673066448802 0  0.0153754765795207 0.01521326933551198 0  0.0771774565913315 0.01322498191305479 0  0.01857756431135545 0.01840228599899994 0  0.04642243568864456 0.01159771400100006 0  0.08125000000000002 0.01155637254901961 0  0.08317650804863432 0.0118234919513657 0  0.08288217288011697 0.01511353252923977 0  0.02837253504384828 0.0117177464035174 0  0.03896057962520807 0.01831163685754031 0  0.01125 0.0114244162490927 0  0.00935910490099115 0.0119067901980177 0  0.02946078431372549 0.01495404411764706 0  0.02875 0.0185829434466942 0  0.002968749999999999 0.0225 0  0.064375 0.016875 0  0.00296875 0.0075 0  0 0.001875 0  0 0.005625 0  0 0.009375 0  0 0.020625 0  0 0.024375 0  0 0.028125 0  0.06062500000000001 0.01812500000000001 0  0.008303571428571429 0.01446428571428572 0  0.01375 0.01865917058160413 0  0.05137790313978056 0.01143372888932909 0  0.04125000000000001 0.01131513063942604 0  0.04101690263896279 0.01844430285842771 0  0.02399563533148224 0.01844349395710867 0  0.08125000000000002 0.01868815426145731 0  0.05354684380692146 0.01145463537600848 0  0.01699195823639423 0.01315138909884649 0  0.07598357371794873 0.015 0  0.04098357371794872 0.015 0  0.003744047619047619 0.00375 0  0.003344630281690141 0.02580853873239437 0  0.04625 0.0187354532243972 0  0.06388392857142858 0.01138392857142858 0  0.06375 0.01375 0  0.05875 0.01375 0  0.06375 0.02 0  0.00622802734375 0.01372802734375 0  0.003630681818181818 0.001369318181818182 0  0.003630681818181818 0.02863068181818182 0  0.06125 0.01625 0  0.06125 0.01125 0  0.05625000000000001 0.01 0  0.05875 0.01125 0  0.06125 0.01375 0  0.08337864763241221 0.0183786476324122 0  0.05213634138653413 0.01674432930673294 0  0.04375000000000001 0.01 0  0.07424178685897437 0.01529258578431373 0  0.03924178685897436 0.01529258578431372 0  0.03410139294454583 0.01843406022904556 0  0.03089860705545417 0.01843406022904556 0  0.02094160484316717 0.01850229584291991 0  0.04375000000000001 0.02 0  0.04437042160883325 0.01820701498672512 0  0.04816311705429156 0.01600061344661149 0  0.07151224904251052 0.0114127410511319 0  0.04395528506193162 0.01639387970349481 0  0.0128750358694518 0.0167500179347259 0  0.02855808448399799 0.01642839899839741 0  0.02812690373330794 0.01340955081400569 0  0.08358500641945087 0.01351822349116885 0  0.05590277777777778 0.01173611111111111 0  0.06683110430364615 0.01164926404662283 0  0.02573206694914602 0.01842532451809762 0  0.01438126661842046 0.01166701193099454 0  0.02384283211216029 0.01526549696571563 0  0.03625 0.02 0  0.004609375000000001 0.0182421875 0  0.003398437500000001 0.01943359375 0  0.001728307845744682 0.01894718251329787 0  0.004377805359085963 0.01656966216675735 0  0.04649673309852075 0.0153889662370871 0  0.03615513600614297 0.01592654988586041 0  0.03316985071935832 0.01598763605018279 0  0.03110111603888768 0.01529816275177977 0  0.01370614113484869 0.0138804542047638 0  0.04930041102671841 0.01842260568883502 0  0.07875000000000001 0.02 0  0.0745395359848485 0.01165101111925709 0  0.03860755698543604 0.01373741558556884 0  0.02605038706571737 0.01573944002207753 0  0.07559826163500957 0.01841729376139847 0  0.04437500000000001 0.01149157931286774 0  0.06874116707361365 0.01454618473032123 0  0.003761917372881356 0.0239307468220339 0  0.003984374999999999 0.01125 0  0.003768503289473684 0.01392539576480263 0  0.001796875 0.0111328125 0  0.003761917372881356 0.008930746822033899 0  0.005 0.00625 0  0.003761917372881355 0.0210692531779661 0  0.06633928571428571 0.01410714285714285 0  0.006484375 0.01125 0  0.08364120589325512 0.01657288979763549 0  0.03576267476503373 0.0184116442851204 0  0.07370875846579374 0.0137848203678562 0  0.06964285714285715 0.01758928571428571 0  0.05520833333333334 0.01833333333333333 0  0.06491071428571429 0.01839285714285714 0  0.0510098951944636 0.01559941474766356 0  0.01786087179886325 0.0115702210443714 0  0.01972197383235524 0.01160576093166696 0  0.01804697593127788 0.01433503795474974 0  0.001644074528704677 0.01642892723865279 0  0.00125 0.03 0  0.001497685185185185 0.001267746913580247 0  0.07315451164202422 0.01643443118912983 0  0.001233906745910645 0.0140625 0  0.01162635071030191 0.01362229857939618 0  0.01528023503083844 0.01845923557506155 0  0.06625 0.02 0  0.07695012019230771 0.01624387078484555 0  0.03139091092855769 0.01320776147621796 0  0.03857339107781042 0.01675295051810485 0  0.001754993120977522 0.02590789105493891 0  0.002288757784711197 0.00412546923654445 0  0.07914382119690884 0.01404430049871201 0  0.001391810103286306 0.01257390899021902 0  0.0419501201923077 0.01614675005432421 0  0.001484375 0.007018229166666667 0  0.001484375 0.02201822916666666 0  0.048
[...]
<PointData  Scalars="pressure"> 
<DataArray  type="Float64"  Name="pressure"  format="ascii">-4.1025400117902975e-06  1.0453775920002395e-03  6.6806828977284858e-04  3.2646608361720173e-04  3.7861258693070848e-04  1.5343121103484380e-04  1.0399008175623217e-03  -3.9476418550002677e-06  1.0398713847974859e-03  1.0897165564791849e-03  1.1027461072011563e-03  5.1038301034927417e-04  5.1043177462937257e-04  7.6620213393144656e-04  7.6619610860825891e-04  2.5432983424078889e-04  2.5446875236339033e-04  6.3826766671003189e-04  6.3819315091710065e-04  1.2618255698086534e-04  1.2658576754957169e-04  8.9421600940347548e-04  8.9387489259009972e-04  3.8195635345036346e-04  3.8225229438587698e-04  1.9049660075460436e-04  1.9049144048518483e-04  4.4643922928427741e-04  7.0216879631126723e-04  7.0220363127383798e-04  5.7438488945900520e-04  9.5796112414542453e-04  8.3007868849293090e-04  3.1839688642634187e-04  -6.3062094303676625e-21  4.4628143332553228e-04  1.5842084311024109e-04  5.7459190121132600e-04  6.0625453266242315e-04  4.1433641346491634e-04  8.3004954565113443e-04  9.5903794142100619e-04  7.3414109154473414e-04  9.2590290670209734e-04  6.2399226187043159e-05  6.1901352421905314e-05  6.7020190032271367e-04  5.3695011980134366e-04  2.5439449493791164e-04  1.1266161586802389e-03  1.0160862507746552e-03  8.0340372994994105e-04  8.9120115521205964e-05  1.1451665323467227e-03  3.1831775169760448e-04  3.1806971960234715e-04  8.6466309682691725e-04  4.7562866153867510e-04  2.0641906647910713e-04  9.7374417131587004e-04  3.6639238689918662e-04  1.1231984756629341e-03  1.0579091977252551e-03  1.0525314071501584e-03  1.1412926287971824e-03  4.3956969535103403e-05  2.2236989483871792e-04  9.8948553209775693e-04  2.8637770783373291e-04  3.5038355140592478e-04  2.8638061484936216e-04  3.6050034646840886e-05  2.2012035184680405e-04  8.6199033529490759e-04  8.4601246626392693e-04  4.7781877222718869e-04  5.0207729266645257e-04  1.0372196538856130e-03  1.5549422622569335e-03  1.5314191620150769e-03  1.0400599255171769e-03  8.9111391435493131e-04  4.4910576420945141e-04  6.6996762652344081e-04  6.4152745850723633e-04  6.0608484604512806e-04  6.9888540726937177e-04  7.3404562321573272e-04  4.1435926357994443e-04  9.2599754390360262e-04  5.7160968833119309e-04  6.0639055335455592e-04  7.9798999553339566e-04  7.6877205951436569e-04  1.2376515947025798e-04  1.5843148541750865e-04  1.2375006450532748e-04  1.5800592605075788e-04  5.7162505685948292e-04  7.9810407131466576e-04  7.8211119120213696e-04  5.4224680487467453e-04  5.4252915157891948e-04  9.5076981208933734e-05  9.4557634412078721e-05  4.4169530057007125e-04  1.8332088482741281e-04  3.8769348980340643e-04  1.1291591041148596e-03  1.1982690551365109e-03  9.4209077644597655e-04  8.9864618457373684e-04  9.5764318801934846e-04  6.2221136455012989e-04  1.0675461448367608e-03  3.9836615130638516e-04  1.7441371509886941e-04  1.1694995325756982e-03  1.1132798240202041e-03  7.4627466059782113e-04  1.0761576337856749e-03  7.0482827828647525e-04  4.1408424377342766e-04  7.5709338487287424e-05  8.3076481039859480e-04  7.0778933866698834e-05  5.0955017214395642e-04  2.3841055137442088e-04  1.0067102372168018e-03  3.5075490459555867e-04  3.3442875218862091e-04  1.1022953990366311e-03  1.0896458498267953e-03  1.1864086230462983e-03  1.1591743529186019e-03  4.7830283053703964e-04  8.6147628103436691e-04  6.7019586614008734e-04  6.5424433135279222e-04  5.4084127328555556e-04  -1.2288834309797358e-07  3.0453112345915941e-05  8.1445544050931648e-04  2.2217185029625716e-04  9.2624173520136177e-04  7.3795952460732270e-04  6.1072618400572919e-04  -1.1271019893109907e-07  7.3374361895360758e-04  1.0344616640344843e-03  9.9075560892848170e-04  9.9213104344480119e-04  2.5095958011086205e-04  9.2188230609278768e-04  2.8639182905778801e-04  3.1840030984188998e-04  3.5037275968476453e-04  2.8620701383428638e-04  2.8581992426771410e-04  3.0583203230709288e-05  5.4099706372016964e-04  7.9934295981085772e-04  1.5284981160697730e-04  1.0180207465913119e-03  6.3462974085914969e-04  6.7019539983471390e-04  7.6194698468523580e-04  6.1272461596904680e-05  8.3166179144119885e-04  4.6828538261336718e-04  8.7201875440035275e-04  4.3030755014088613e-04  4.1468789399356072e-04  1.4702966857857517e-04  5.9489169558496317e-04  9.8594405543277018e-05  4.7543380441320514e-04  6.8616074210877949e-04  2.0642356248821094e-04  1.1043203690961667e-04  8.7794089424151408e-04  2.1442170683637636e-04  3.9036260863056072e-04  2.3040652393399591e-04  1.8532837880426837e-04  3.5846051730648449e-04  9.9632944529438449e-04  9.7472729977033453e-04  9.4984842500213439e-04  3.6637869475838016e-04  3.4239951223897271e-04  5.1145308940293334e-04  1.0448640593105850e-03  1.0425244294580845e-03  4.5111222458938023e-04  8.8916567621951455e-04  9.8563534137130682e-05  8.4818428955875976e-04  4.9207301849796487e-04  4.6290102442941736e-05  2.1637451692498650e-05  2.6172758832372419e-05  7.2295500665974150e-04  5.8760192183055090e-04  9.4182489345891629e-04  9.6594756880210967e-04  7.0906561495936255e-04  7.1813682151903723e-04  1.1022624139716279e-03  2.6238757354836586e-04  1.0899684060985911e-03  1.1199623949254363e-03  1.1106333294870407e-03  1.0696385104716555e-03  1.0782741584855588e-03  1.1257852609869614e-03  1.1297814139178074e-03  3.1039511026888038e-04  9.7884256858503317e-04  9.1010838942102990e-04  4.2867577915530001e-04  5.5829718802676020e-04  5.6129915997544611e-04  7.7892598431024342e-04  4.6228593221537213e-05  4.0096811455743583e-04  8.6847632804920344e-04  1.1384233515634007e-04  5.6169179263519968e-04  1.1464749068373493e-03  1.1580396446005615e-03  4.9426690938262068e-04  2.6866005458176103e-04  2.7038752698746996e-04  3.3439141440180640e-04  2.7015519702576696e-04  1.0036655192585398e-03  1.2411696512598699e-03  1.2656570281015837e-03  3.0239585687169101e-04  3.0237631268005170e-04  3.6651542667670187e-04  3.3438406084263780e-04  3.0239566810766734e-04  1.8774127522020091e-05  4.1898605659279066e-04  5.2600473029741353e-04  1.3612672188805658e-04  5.8397803736677815e-04  6.4971036364406751e-04  6.9072699691940240e-04  8.1800570100414895e-04  5.2612568986170651e-04  5.1836075447428203e-04  4.6979679363976683e-04  1.7108368750789424e-04  5.2365758240659080e-04  9.2121568540927618e-04  7.2061016542397866e-04  7.2612090426485518e-04  1.7296748728684699e-05  3.7080219642608166e-04  2.3093447623728791e-04  7.5677092316733796e-04  9.0178930339719393e-04  7.8090728864726436e-04  6.2256421533352481e-04  1.0306386204146905e-03  1.0549827507877379e-03  1.0579254119825205e-03  1.0249123339684493e-03  4.9113107179960523e-04  6.2346178627610950e-04  6.6163523273110418e-04  6.8809057299755157e-04  9.1046476845434534e-04  4.5521496856194387e-04  7.8365099202483928e-05  1.3231410251187447e-04  5.9208297172147961e-04  7.5267972269985777e-04  1.1873900821812821e-04  5.1828908625404244e-04  2.0652995549509963e-04  1.1254007880767769e-03  1.0375930652289835e-03  1.0270445012480001e-03  1.0513738362746235e-03  1.0692265748441408e-03  1.1073800962508576e-03  1.0784762552771795e-03  2.3725616736321474e-04  1.0046023536031113e-03  1.6577655104957441e-05  6.2852919339768758e-04  1.4295291849276978e-04  1.9500200564638188e-04  3.7970645554276730e-04  2.5551966214941679e-04  4.3338976022988968e-04  8.5737971746806642e-04  8.3358460889949751e-04  8.5500024689127410e-04  1.0412310867348297e-03  1.1809018431346533e-03  1.1298544153937548e-03  1.5003338308475231e-04  1.0391783600410332e-03  9.3699395479352604e-04  8.9043276070577130e-04  2.3864375460599442e-04  1.0147256770138087e-04  6.8437900414018509e-04  5.9253693688813191e-04  1.1485217892702037e-03  1.1320000889012880e-03  7.3433912600443985e-05  1.0433748151364877e-03  5.4932274442340062e-04  1.0957188652866523e-03  1.0958239602726493e-03  4.5966311306052537e-04  4.4985086152312439e-04  8.8064243974148395e-04  4.2784010383694070e-04  4.8966399095297353e-04  8.5063421626681898e-04  5.2458624795464668e-04  8.1852838200956385e-04  5.4932093104086003e-04  4.0136581991031118e-04  5.7619357329993445e-04  9.0804495690967216e-04  8.1642319158489241e-04  7.9962916895155896e-04  7.6527271345051958e-04  7.8216224449538117e-04  7.5032632900290993e-04  7.9662228627541221e-04  2.0185474090289831e-04  1.7153760923201304e-04  9.0714376434856525e-05  1.1147628944372253e-03  1.1161519630850190e-03  1.0793939866564691e-03  7.0467868839970804e-04  1.1542761422796439e-03  7.4446526237591910e-04  6.3946123522745570e-04  1.8390575713779142e-04  2.2241408358392010e-04  3.8237856650230855e-04  2.3040559383157293e-04  1.6332044267456839e-04  9.6084655165114795e-04  6.3688994058248123e-04  6.2184968068838267e-04  6.1114653167058562e-04  9.8764893580398122e-04  1.0093802476115361e-03  3.2106724143080939e-04  2.4639967061304612e-04  3.4241243916421747e-04  4.1173994387770407e-04  6.1816298114170619e-04  9.4209991963518491e-04  2.7840685854135317e-04  9.5391813044263802e-04  9.2889420430651896e-04  9.9642499392904376e-04  1.7223060492106457e-04  3.5041350134854839e-04  4.3253294772072854e-05  6.5264655135692843e-04  9.7370043071389151e-04  1.8883002059166639e-04  3.8413004461227595e-04  5.3089071916062602e-05  7.0352535405552148e-05  7.6547248821261606e-05  1.1197204065262574e-03  3.9837838398906273e-04  5.7813284966809715e-05  7.7810787314886804e-05  6.4996880447400654e-05  8.7778201575488342e-04  4.6229247352447939e-04  1.0502139785070594e-03  6.7808820493750965e-04  1.8919811568960518e-04  1.0105868625064224e-03  9.7380329680436003e-04  9.8208603662335199e-04  7.8623049533979355e-04  8.4601856644400068e-04  7.6155531427814238e-04  3.6650604342574217e-04  2.7038943379475376e-04  2.0666862428389676e-04  3.0250097965780652e-04  7.8558862846738614e-04  4.8482335503241417e-04  9.5102411845981874e-04  6.0647475358263680e-04  1.1332511303262240e-03  1.1293938203389095e-03  1.1988152199195810e-03  1.4217345927168792e-04  8.7922679447227983e-04  6.9594981767988318e-04  1.0530943973078594e-03  9.6502618491088805e-04  5.3429298360530800e-04  8.1405877975009955e-04  1.0333365053271611e-03  6.0665213836459270e-07  8.3525371468538591e-06  2.9497077352943726e-04  3.2584773382774438e-04  1.4250992885384220e-04  5.9019384226475786e-04  2.0043931555546786e-04  6.6734464763078759e-04  6.6868909280334897e-04  6.5455596616781342e-04  8.2922126794940680e-04  8.4787829805464524e-04  3.5076738403484942e-04  7.3812767303164939e-04  5.3533439729347865e-04  6.1256734933812272e-04  6.0743890995944251e-04  8.0300736813758964e-04  1.4739354513197548e-04  9.1787036838426883e-04  7.3654579544807960e-04  7.5286775879262200e-04  7.3424814645324846e-04  6.2623906903217104e-04  9.3475152871801105e-04  2.5264838901545381e-04  2.5267797207997373e-04  2.3553443740893207e-04  1.0623740356850903e-03  4.0384043006780617e-04  1.0353984511546226e-03  8.1506210109217019e-04  7.9492519499416343e-04  1.7429406299112590e-04  1.1060023101970501e-04  4.6205506409456994e-04  7.5029648379909932e-04  1.7456744676480732e-04  6.5411895772304375e-04  2.8639041193658627e-04  2.3822029685228603e-04  2.7043891830578261e-04  3.9859306675676021e-04  4.6041080787487311e-05  7.8192083177826982e-04  4.3028172296174030e-04  5.5824789965546449e-04  5.9018031014302654e-04  4.6106835322722927e-05  1.1039004450561448e-04  2.0642996128218959e-04  4.3031356253580753e-04  5.5835884279212982e-04  1.1221406180224069e-03  -1.1064361733461494e-08  3.5038838259101175e-04  2.8641800497226889e-04  9.1009014083033829e-04  9.4182186621072101e-04  9.7488764213966503e-04  8.7794264935269590e-04  1.0723651482733797e-03  9.0962250125298813e-04  1.4448216960367428e-03  1.1479647820361572e-03  1.2067411163564318e-03  1.4044584305985457e-03  1.1863002382756535e-03  1.0072028427167655e-03  1.0165511497202873e-03  1.0823894202672188e-03  6.9192554635463201e-09  8.1415447291894119e-04  2.8639027758577422e-04  1.1700329681797689e-03  7.1806953615890167e-04  7.1831256841624314e-04  8.4595645638277123e-04  6.8604022807519118e-04  1.2486894133843919e-03  7.6313231969578079e-07  6.8647370352817533e-04  3.9577266075684650e-04  3.0239487660662853e-04  3.1839544462246370e-04  3.3438488862300489e-04  3.1840619541711443e-04  3.3432680192328816e-04  3.0240498942918012e-04  3.0305339968425473e-04  4.9468334431239499e-04  4.9423821077654534e-04  3.3449219541104708e-04  8.8347033264602149e-06  5.5736291936384758e-04  8.6253508073265929e-05  4.7028607137025269e-04  5.5686339954098872e-04  4.9797812184110160e-04  1.0173020585317486e-03  7.8079523549100022e-04  3.7170426531085059e-04  2.2213366544579180e-04  1.3447324690606403e-04  3.0489591814592719e-05  5.2490229998174902e-04  1.6766355881444957e-04  3.7422070678386373e-04  1.0671657417004800e-03  1.0393385401722727e-03  6.7520302691644702e-04  6.5521937843702983e-04  8.7327413414481589e-05  1.0996926896385999e-03  1.0477163428938953e-04  1.1735407848209225e-03  1.0704370378730485e-03  7.1181876656027535e-04  3.5750106593113515e-04  1.9170851071598447e-04  3.8532004471809043e-04  2.6641163137857180e-04  5.8556898016752966e-05  8.3299316551672898e-04  4.3400240294399854e-04  1.0273355042583049e-03  1.1323235828889135e-03  9.0737499602520097e-04  1.3866824965248209e-04  1.2974792601910858e-04  5.7884742698259941e-04  1.0211324522290503e-03  1.0038820758577402e-03  1.0290575878967928e-03  4.6146874641659702e-04  6.3753456509629727e-04  3.0136428080520370e-05  6.8639004534326792e-04  7.6717132640482231e-04  2.7206668669675215e-04  3.7025986985065018e-04  8.1045680255224404e-04  1.3265975861665480e-04  8.6239794330964209e-04  4.7359874566061137e-04  4.7030295669505241e-04  8.6531438745530097e-04  1.5752057572548865e-04  9.4654258857531759e-04  4.8981679820751356e-04  5.9854027266446094e-04  9.3651759248389364e-04  6.1429935819262764e-05  1.1016798127553606e-04  4.8236248694518772e-05  8.3278051659074455e-04  8.3727581565786607e-04  9.9297377821682981e-04  1.2722885769896471e-03  2.1545183543730291e-04  1.6011833916543914e-04  5.8404165593238023e-04  1.0047469680023811e-03  6.5043938248748737e-04  1.1077755421264135e-03  6.5348637421599304e-04  4.1481470399326581e-04  7.5185470003634089e-04  7.0454211210084678e-04  8.7757537609767559e-04  3.3276084313968999e-05  5.4847553874478249e-04  1.0147936755142779e-04  5.0486181270463970e-04  9.0115081481171298e-04  1.2214423305028086e-03  5.9814125876270522e-04  1.5029754151286301e-04  7.7355904444588181e-04  8.4549249575203365e-05  4.4315884656018364e-04  9.8596955539621660e-04  1.0502740367375476e-03  2.9038744075322290e-05  1.3318537021369295e-05  4.3828786046064462e-04  6.7304976095410854e-04  4.0118641034349420e-04  4.2819340271873959e-04  5.8226224155990061e-04  1.9792495292152113e-04  8.1821657003643404e-04  9.1141083537321557e-04  1.1040680479811606e-03  1.0847896604452454e-03  1.1083756834420052e-03  9.2404726803377063e-04  2.4636564269863695e-04  1.0183946492666864e-03  9.6580779177371805e-04  9.8421247104598731e-04  9.7424317079439367e-04  1.3638647274685022e-04  1.1387634924400511e-04  5.9629004187210872e-04  4.5381239923426766e-04  4.1460336956111401e-04  6.7702793551636335e-04  6.2212261904703089e-04  4.2233046906871611e-04  5.7407854212010684e-04  5.7320765027648842e-04  1.1234441045116716e-03  8.8655194291009816e-04  6.2598885341303161e-04  1.7156473265379917e-04  7.5004865151927170e-04  7.2481377006441668e-04  6.0507819409722570e-04  7.1343069413597388e-04  8.3799834580115286e-04  1.0835459221501394e-03  1.0446985423151571e-03  6.6223575566497640e-04  1.1292549377991674e-03  6.9642620266869995e-04  6.9412895251177228e-04  1.0960958199813591e-03  1.0869988096594769e-03  1.0844586468374167e-03  5.0436135771732575e-04  5.0766837538024660e-04  8.5769297166790647e-04  6.8321105074349076e-04  5.3611960528735338e-04  1.1174900327424390e-03  1.0770049473100899e-03  6.2430652592247087e-04  9.6590832652515926e-04  1.0483247911437276e-03  1.0491035869383439e-03  7.8243533931863379e-05  4.4154675047178971e-04  7.9308305336736596e-04  4.2516456335259108e-05  5.4279693366176608e-05  3.7986664725792793e-05  5.2423705334788361e-04  5.1180297438013582e-04  5.0344806457525550e-04  4.3972615167745015e-04  2.1256550292904187e-04  2.1442597573030034e-04  1.0414353361514939e-03  4.4645005958741815e-04  8.9638411220666460e-04  8.7585597995414207e-04  4.6298074728753777e-04  1.0242274490584832e-04  1.2191691844352695e-04  1.2088272814604292e-04  1.0854873539978349e-04  8.6995629313040229e-04  8.8939398250874053e-04  8.8590983957221973e-04  5.9787681929310374e-04  2.6576670468711179e-04  3.1040024538511518e-04  2.7516723238104918e-04  9.6121510690177537e-04  2.1443012045262974e-04  2.5839320558325641e-04  3.5844129232203066e-04  2.2640539620263285e-04  2.1042118926974359e-04  4.0243656103399519e-04  9.9743122182911650e-04  9.5000012592487957e-04  3.4233905759950599e-04  9.8326496866326567e-04  2.3440639883104473e-04  2.4239978152854532e-04  2.5039197763953479e-04  3.4644739327409043e-04  3.3440567684107594e-04  3.2176587138453897e-04  2.9903317725683869e-04  3.3126851156025343e-04  3.1458526362106230e-04  7.3585372131740185e-05  1.0577697551288323e-05  4.8170611574386728e-04  3.7443490459107694e-04  8.9135782350154285e-05  5.5898145682138417e-04  7.2148464998278525e-04  7.0016681752361847e-04  9.5304614267276546e-04  7.2437786009101914e-04  8.0729756529714179e-04  8.4162717613771125e-04  6.3922250459620006e-04  9.7773094460363317e-04  9.2932506419669727e-04  7.9241585382638463e-05  1.9845539544531400e-04  7.7883173405826655e-04  7.6666729075614936e-04  6.7819510604215177e-04  3.4124251492182521e-05  2.1590696167395082e-05  9.0895865840983352e-06  5.0769458354772679e-04  9.4131343987119735e-04  5.4932113230266423e-04  5.6656253654287681e-04  5.6244107338479944e-04  1.1444503566478977e-04  6.4480925402888721e-04  5.3695697094688973e-04  5.6976670536296431e-04  4.8287837070693754e-04  8.5424071449805620e-06  7.1226528879665587e-04  7.2615707625422381e-04  7.3404182208872766e-04  1.1433919243946046e-03  1.0494685393717918e-03  3.7438664889986401e-04  3.6208565764008811e-04  9.0219057142420459e-05  8.7784348116102379e-04  6.4922135531060392e-04  8.6736262560094452e-04  5.8415872873765091e-05  1.1045886989091778e-03  8.2207742579770682e-04  7.7433496389789434e-04  4.5867217441769440e-04  1.1009644575002257e-03  5.2980170254802593e-04  5.2281844002471814e-04  5.1468950190140144e-04  9.6250749068807430e-04  9.3377063617380374e-04  1.1115290425622476e-03  8.4357753440150957e-04  9.2351991914688656e-04  7.1017404272787684e-04  4.8197874814981162e-04  1.0240057185890052e-04  4.1116407627178597e-04  4.9430029682762839e-05  8.4535570907533675e-04  1.0895501566398464e-03  1.1146186057180345e-03  1.0602069096837031e-03  2.6639150723780356e-04  1.1196133796979922e-03  1.0794439724183750e-03  1.0468873786851449e-03  1.0399074614392571e-03  1.1413040093183632e-03  1.0506329459245270e-03  1.1349274565891415e-03  7.9792066564860940e-04  1.9666736529490764e-04  9.0115842347816345e-04  1.5964222595510487e-04  1.1400457682167906e-03  8.6777111790818987e-04  8.5735043251236056e-04  5.5052155717876720e-04  7.9074451370335494e-04  7.8888249218673177e-04  7.7409092188720314e-04  1.2628437751916670e-04  6.7599640201344561e-05  8.4439680844864437e-04  1.2203233596112105e-05  2.4447318961527009e-05  2.7642570255613784e-05  5.8215228328687774e-04  5.8203853031874562e-04  1.1734506504640129e-03  6.2775740200918966e-04  9.6765396397101809e-04  5.7312294962522472e-04  8.9935221017277195e-04  9.1816023652402704e-04  1.4216147767031885e-04  1.3442973633981360e-04  1.1328833396461848e-03  7.3715309381880976e-04  9.3931747871024956e-04  4.9720939119597901e-04  4.1895694014670176e-04  4.3534135973865136e-04  3.7341340360035065e-05  3.5962586981115005e-04  5.4665611818696886e-04  5.5022017966725701e-04  4.5844419341411325e-04  5.4231207763539076e-05  7.1430121148689633e-04  9.8504016826956534e-04  8.5553047177217717e-04  6.9420508312838605e-04  6.4623224178041465e-04  6.6119029424046205e-04  1.0317573683793098e-03  1.0389488745710376e-03  1.0587568565807383e-03  4.0514929664868163e-04  3.914