<?xml version="1.0"?>
<VTKFile type="UnstructuredGrid"  version="0.1"  >
<UnstructuredGrid>
<Piece  NumberOfPoints="1079" NumberOfCells="1944">
<Points>
<DataArray  type="Float64"  NumberOfComponents="3"  format="ascii">0.08500000000000001 0.02 0  0.005 0.02 0  0.005 0.03 0  0 0.03 0  0 0 0  0.005 0 0  0.005 0.01 0  0.08500000000000001 0.01 0  0 0.015 0  0 0.0075 0  0 0.0225 0  0.04500000000000001 0.02 0  0.04500000000000001 0.01 0  0.025 0.01 0  0.025 0.02 0  0.065 0.02 0  0.065 0.01 0  0.035 0.02 0  0.035 0.01 0  0.07500000000000001 0.02 0  0.07500000000000001 0.01 0  0.015 0.02 0  0.015 0.01 0  0.05500000000000001 0.01 0  0.05500000000000001 0.02 0  0.07000000000000001 0.01 0  0.07000000000000001 0.02 0  0.05 0.01 0  0.03 0.01 0  0.03 0.02 0  0.04000000000000001 0.01 0  0.01 0.01 0  0.02 0.02 0  0.06 0.015 0  0.08500000000000001 0.015 0  0.05 0.02 0  0.07250000000000001 0.015 0  0.04000000000000001 0.02 0  0.03750000000000001 0.015 0  0.0525 0.015 0  0.02 0.01 0  0.01 0.02 0  0.0275 0.015 0  0.0125 0.015 0  0.08000000000000002 0.01 0  0.08000000000000002 0.02 0  0.0325 0.014375 0  0.04291666666666667 0.015 0  0.065 0.015 0  0.005 0.005 0  0.005 0.015 0  0.02208333333333334 0.015 0  0.07791666666666668 0.015 0  0.005 0.025 0  0.06 0.01 0  0.06 0.02 0  0.01729166666666667 0.01572916666666667 0  0.04770833333333334 0.01427083333333334 0  0.06875000000000001 0.01625 0  0.008750000000000001 0.01625 0  0.05625000000000001 0.01625 0  0 0.00375 0  0 0.01875 0  0 0.01125 0  0 0.02625 0  0.08145833333333334 0.01354166666666667 0  0.0675 0.01 0  0.0075 0.0125 0  0.0625 0.0175 0  0.0575 0.0125 0  0.0625 0.0125 0  0.08207465277777778 0.01707465277777778 0  0.06767857142857144 0.01321428571428571 0  0.0175 0.01 0  0.01875 0.01291382575757576 0  0.0475 0.02 0  0.04564168086314595 0.01679860519591141 0  0.00296875 0.0125 0  0.0025 0.03 0  0.0025 0 0  0.00296875 0.0175 0  0.01521990740740741 0.0132349537037037 0  0.0497800925925926 0.0167650462962963 0  0.0325 0.02 0  0.03474264705882353 0.01674632352941176 0  0.03750000000000001 0.02 0  0.03025735294117647 0.01674632352941176 0  0.0275 0.02 0  0.0525 0.02 0  0.0125 0.01 0  0.04020833333333334 0.01322916666666667 0  0.03750000000000001 0.01 0  0.0225 0.02 0  0.02479166666666667 0.01677083333333333 0  0.07520833333333335 0.01322916666666667 0  0.07250000000000001 0.01 0  0.07520833333333335 0.01677083333333334 0  0.07250000000000001 0.02 0  0.04020833333333334 0.01677083333333333 0  0.0225 0.01 0  0.02375 0.01262152777777778 0  0.04250000000000001 0.02 0  0.04250000000000001 0.01 0  0.07750000000000001 0.01 0  0.07750000000000001 0.02 0  0.05036151960784314 0.01294424019607843 0  0.0705560064935065 0.01284699675324675 0  0.05458333333333334 0.01291666666666666 0  0.0021875 0.024375 0  0.005 0.0275 0  0.01125 0.0175 0  0.01463848039215686 0.01705575980392157 0  0.01 0.01375 0  0.03625 0.0125 0  0.0021875 0.009375 0  0.05375000000000001 0.0175 0  0.07125000000000001 0.0175 0  0.005 0.0025 0  0.0021875 0.005625 0  0.02655220103578155 0.01234889948210923 0  0.002187499999999999 0.020625 0  0.02979166666666667 0.01302083333333333 0  0.0525 0.01 0  0.07895833333333334 0.0125 0  0.01994277885235332 0.01704213007736944 0  0.07934656179076068 0.01733823814273861 0  0.04505722114764669 0.01295786992263056 0  0.06625 0.0175 0  0.006250000000000001 0.0175 0  0.05750000000000001 0.02 0  0.05875000000000001 0.0175 0  0.005 0.0225 0  0.005 0.0075 0  0.002375 0.027375 0  0.002375 0.002625000000000001 0  0.0475 0.01 0  0.0175 0.02 0  0.0325 0.01 0  0.03375 0.0121875 0  0.04261299435028249 0.01749205508474576 0  0.08500000000000001 0.0125 0  0.08250000000000002 0.01 0  0.02121963399965531 0.01224824108143494 0  0.0675 0.02 0  0.0125 0.02 0  0.02720152243589744 0.0175 0  0.03715165441176471 0.0175 0  0.08500000000000001 0.0175 0  0.0275 0.01 0  0.0025 0.0149560546875 0  0.0075 0.01 0  0.0075 0.02 0  0.06526785714285716 0.0125 0  0.01281031447005516 0.0125 0  0.0625 0.015 0  0.06 0.0125 0  0.05750000000000001 0.01 0  0.0625 0.02 0  0.0625 0.01 0  0.08250000000000002 0.02 0  0.04260103740101855 0.01252623201412851 0  0.02240052247582197 0.01750164767101344 0  0.07293583459427785 0.01238479732953041 0  0.005234374999999999 0.012265625 0  0.03528131980640358 0.01454684009679821 0  0.0325 0.01760027210036557 0  0.02532593822924343 0.01428227733767297 0  0.08009952069819683 0.01527145502895417 0  0.01987282359856536 0.01482587683689801 0  0.04828232595121382 0.01210233572595705 0  0.01671767404878618 0.01789766427404295 0  0.05125 0.01829007549029352 0  0.05247215456215357 0.01288882122882024 0  0.07338729919678716 0.01799385040160642 0  0.03838729919678716 0.01200614959839357 0  0.07717482110586968 0.01780301674207099 0  0.04771860040890012 0.01773306039388322 0  0.03125 0.01160380747126437 0  0.06875000000000001 0.01154265873015873 0  0.07625000000000001 0.01154065860215054 0  0.01625 0.01153997817696946 0  0.068125 0.018125 0  0.05437500000000001 0.015625 0  0.066875 0.015625 0  0.07039794950204951 0.01494384850614853 0  0.05687500000000001 0.018125 0  0.006875 0.015625 0  0.008749999999999999 0.01833333333333333 0  0.010625 0.015625 0  0.05625 0.01416666666666667 0  0.05812500000000001 0.015625 0  0.0449088595298192 0.01494528408816316 0  0 0.016875 0  0 0.013125 0  0.04962452342047931 0.01478673066448802 0  0.0153754765795207 0.01521326933551198 0  0.0771774565913315 0.01322498191305479 0  0.01857756431135545 0.01840228599899994 0  0.04642243568864456 0.01159771400100006 0  0.08125000000000002 0.01155637254901961 0  0.08317650804863432 0.0118234919513657 0  0.08288217288011697 0.01511353252923977 0  0.02837253504384828 0.0117177464035174 0  0.03896057962520807 0.01831163685754031 0  0.01125 0.0114244162490927 0  0.00935910490099115 0.0119067901980177 0  0.02946078431372549 0.01495404411764706 0  0.02875 0.0185829434466942 0  0.002968749999999999 0.0225 0  0.064375 0.016875 0  0.00296875 0.0075 0  0 0.001875 0  0 0.005625 0  0 0.009375 0  0 0.020625 0  0 0.024375 0  0 0.028125 0  0.06062500000000001 0.01812500000000001 0  0.008303571428571429 0.01446428571428572 0  0.01375 0.01865917058160413 0  0.05137790313978056 0.01143372888932909 0  0.04125000000000001 0.01131513063942604 0  0.04101690263896279 0.01844430285842771 0  0.02399563533148224 0.01844349395710867 0  0.08125000000000002 0.01868815426145731 0  0.05354684380692146 0.01145463537600848 0  0.01699195823639423 0.01315138909884649 0  0.07598357371794873 0.015 0  0.04098357371794872 0.015 0  0.003744047619047619 0.00375 0  0.003344630281690141 0.02580853873239437 0  0.04625 0.0187354532243972 0  0.06388392857142858 0.01138392857142858 0  0.06375 0.01375 0  0.05875 0.01375 0  0.06375 0.02 0  0.00622802734375 0.01372802734375 0  0.003630681818181818 0.001369318181818182 0  0.003630681818181818 0.02863068181818182 0  0.06125 0.01625 0  0.06125 0.01125 0  0.05625000000000001 0.01 0  0.05875 0.01125 0  0.06125 0.01375 0  0.08337864763241221 0.0183786476324122 0  0.05213634138653413 0.01674432930673294 0  0.04375000000000001 0.01 0  0.07424178685897437 0.01529258578431373 0  0.03924178685897436 0.01529258578431372 0  0.03410139294454583 0.01843406022904556 0  0.03089860705545417 0.01843406022904556 0  0.02094160484316717 0.01850229584291991 0  0.04375000000000001 0.02 0  0.04437042160883325 0.01820701498672512 0  0.04816311705429156 0.01600061344661149 0  0.07151224904251052 0.0114127410511319 0  0.04395528506193162 0.01639387970349481 0  0.0128750358694518 0.0167500179347259 0  0.02855808448399799 0.01642839899839741 0  0.02812690373330794 0.01340955081400569 0  0.08358500641945087 0.01351822349116885 0  0.05590277777777778 0.01173611111111111 0  0.06683110430364615 0.01164926404662283 0  0.02573206694914602 0.01842532451809762 0  0.01438126661842046 0.01166701193099454 0  0.02384283211216029 0.01526549696571563 0  0.03625 0.02 0  0.004609375000000001 0.0182421875 0  0.003398437500000001 0.01943359375 0  0.001728307845744682 0.01894718251329787 0  0.004377805359085963 0.01656966216675735 0  0.04649673309852075 0.0153889662370871 0  0.03615513600614297 0.01592654988586041 0  0.03316985071935832 0.01598763605018279 0  0.03110111603888768 0.01529816275177977 0  0.01370614113484869 0.0138804542047638 0  0.04930041102671841 0.01842260568883502 0  0.07875000000000001 0.02 0  0.0745395359848485 0.01165101111925709 0  0.03860755698543604 0.01373741558556884 0  0.02605038706571737 0.01573944002207753 0  0.07559826163500957 0.01841729376139847 0  0.04437500000000001 0.01149157931286774 0  0.06874116707361365 0.01454618473032123 0  0.003761917372881356 0.0239307468220339 0  0.003984374999999999 0.01125 0  0.003768503289473684 0.01392539576480263 0  0.001796875 0.0111328125 0  0.003761917372881356 0.008930746822033899 0  0.005 0.00625 0  0.003761917372881355 0.0210692531779661 0  0.06633928571428571 0.01410714285714285 0  0.006484375 0.01125 0  0.08364120589325512 0.01657288979763549 0  0.03576267476503373 0.0184116442851204 0  0.07370875846579374 0.0137848203678562 0  0.06964285714285715 0.01758928571428571 0  0.05520833333333334 0.01833333333333333 0  0.06491071428571429 0.01839285714285714 0  0.0510098951944636 0.01559941474766356 0  0.01786087179886325 0.0115702210443714 0  0.01972197383235524 0.01160576093166696 0  0.01804697593127788 0.01433503795474974 0  0.001644074528704677 0.01642892723865279 0  0.00125 0.03 0  0.001497685185185185 0.001267746913580247 0  0.07315451164202422 0.01643443118912983 0  0.001233906745910645 0.0140625 0  0.01162635071030191 0.01362229857939618 0  0.01528023503083844 0.01845923557506155 0  0.06625 0.02 0  0.07695012019230771 0.01624387078484555 0  0.03139091092855769 0.01320776147621796 0  0.03857339107781042 0.01675295051810485 0  0.001754993120977522 0.02590789105493891 0  0.002288757784711197 0.00412546923654445 0  0.07914382119690884 0.01404430049871201 0  0.001391810103286306 0.01257390899021902 0  0.0419501201923077 0.01614675005432421 0  0.001484375 0.007018229166666667 0  0.001484375 0.02201822916666666 0  0.048
[...]
<PointData  Scalars="pressure"> 
<DataArray  type="Float64"  Name="pressure"  format="ascii">-5.1803080800182992e-06  1.3200123536600251e-03  8.4355169971503472e-04  4.1240020767664936e-04  4.7829936395892822e-04  1.9387152648542505e-04  1.3131038862466801e-03  -4.9847138716913626e-06  1.3130639524673395e-03  1.3760127387900292e-03  1.3924494634753584e-03  6.4446947670930750e-04  6.4453104737696297e-04  9.6749674061106822e-04  9.6748912739035139e-04  3.2114667243803138e-04  3.2132207903137668e-04  8.0595165961130390e-04  8.0585755815295115e-04  1.5933286794437404e-04  1.5984200957665562e-04  1.1291419991204513e-03  1.1287114344903789e-03  4.8230288972353637e-04  4.8267658413306497e-04  2.4054333084689441e-04  2.4053680848800684e-04  5.6372654319744630e-04  8.8664072416661150e-04  8.8668471466512059e-04  7.2528575724639254e-04  1.2096345800389086e-03  1.0481547591082027e-03  4.0204524790789329e-04  -9.1089691771977339e-21  5.6352729557292527e-04  2.0004071189763323e-04  7.2554715410810670e-04  7.6552811208532086e-04  5.2318976044002689e-04  1.0481179870908332e-03  1.2109933910600405e-03  9.2701269749252972e-04  1.1691536839789124e-03  7.8792543506715681e-05  7.8163864126454505e-05  8.4627556728312093e-04  6.7801622232984879e-04  3.2122831378720776e-04  1.4226060928569724e-03  1.2830298847397162e-03  1.0144718375664635e-03  1.1253347746132489e-04  1.4460052545097488e-03  4.0194532972029064e-04  4.0163212764188639e-04  1.0918250976598926e-03  6.0058454912001469e-04  2.6064890468816281e-04  1.2295634254780271e-03  4.6265000294486034e-04  1.4183037184506777e-03  1.3358369723947467e-03  1.3290535410955440e-03  1.4411260194840114e-03  5.5505193404734107e-05  2.8079029603149326e-04  1.2494413104868606e-03  3.6161407283602021e-04  4.4243536750474623e-04  3.6161774376797907e-04  4.5520969846278189e-05  2.7794975670929428e-04  1.0884501999817477e-03  1.0682746462273942e-03  6.0335003101802973e-04  6.3398169591927266e-04  1.3097175465645234e-03  1.9630903318998021e-03  1.9334158724935249e-03  1.3132998527349228e-03  1.1252250576275365e-03  5.6709362521978660e-04  8.4597973845932663e-04  8.1006785011882845e-04  7.6531383923998501e-04  8.8249473071870500e-04  9.2689214522721623e-04  5.2321861398551119e-04  1.1692733637373889e-03  7.2178146354172465e-04  7.6569987133594958e-04  1.0076358129838317e-03  9.7074182245865978e-04  1.5628037676611772e-04  2.0005414138746008e-04  1.5626131630348212e-04  1.9951678589486834e-04  7.2180086922957209e-04  1.0077798714289118e-03  9.8758538133861175e-04  6.8470443287234057e-04  6.8506095714777622e-04  1.2005530358546173e-04  1.1939952272616044e-04  5.5773630333884881e-04  2.3148242841146085e-04  4.8954727632197876e-04  1.4257989524184243e-03  1.5130361101062264e-03  1.1895941713602025e-03  1.1347360842517381e-03  1.2092328692945083e-03  7.8567708191259783e-04  1.3480148246653814e-03  5.0302383259453879e-04  2.2023518900903289e-04  1.4767478784066881e-03  1.4057688092282518e-03  9.4233396722854970e-04  1.3588773921711986e-03  8.8999889778252261e-04  5.2287134207485439e-04  9.5599454089191207e-05  1.0490211404611894e-03  8.9373747115275692e-05  6.4341783123702785e-04  3.0104510992711266e-04  1.2711894265966040e-03  4.4290428150525437e-04  4.2228896316848881e-04  1.3918787116064895e-03  1.3759222118028581e-03  1.4980794056574480e-03  1.4637243133155211e-03  6.0396126859456280e-04  1.0878010199740600e-03  8.4626795410142769e-04  8.2612566713413595e-04  6.8292964961417092e-04  -1.5517176114896863e-07  3.8453563140321605e-05  1.0284270335602665e-03  2.8054021886357534e-04  1.1695813327391462e-03  9.3183429838055798e-04  7.7117454351123278e-04  -1.4231992833965409e-07  9.2651079921054515e-04  1.3062329918852188e-03  1.2510453194340683e-03  1.2527799840977452e-03  3.1689098702467560e-04  1.1640769264034876e-03  3.6163190449565964e-04  4.0204957140265617e-04  4.4242173905135237e-04  3.6139852420691575e-04  3.6090974741986674e-04  3.8617833970434763e-05  6.8312636868090042e-04  1.0093442270908662e-03  1.9300607325542518e-04  1.2854741138197347e-03  8.0135798171124229e-04  8.4626735843019410e-04  9.6212368364156280e-04  7.7369763852717092e-05  1.0501537849086082e-03  5.9131206303040564e-04  1.1011131844389272e-03  5.4335679369725695e-04  5.2363358081365229e-04  1.8565687718401870e-04  7.5118006014282144e-04  1.2449682680205096e-04  6.0033849834048472e-04  8.6642707613862732e-04  2.6065458285428461e-04  1.3944441060432614e-04  1.1085912635262671e-03  2.7075397777672746e-04  4.9291761959896030e-04  2.9093828513543807e-04  2.3401732592104096e-04  4.5263429295066307e-04  1.2580823158061473e-03  1.2308044762843252e-03  1.1993900336467033e-03  4.6263271352956479e-04  4.3235378171849485e-04  6.4582067792920894e-04  1.3193665546460194e-03  1.3164156770416240e-03  5.6962721739173771e-04  1.1227649349077303e-03  1.2445784538461376e-04  1.0710170076414600e-03  6.2134912424391679e-04  5.8451268137844766e-05  2.7321942970658207e-05  3.3048774630025400e-05  9.1288783408117634e-04  7.4197513568754526e-04  1.1892589183386184e-03  1.2197192339290176e-03  8.9534945653693806e-04  9.0680382721254073e-04  1.3918375806192612e-03  3.3132131353922348e-04  1.3763299148897108e-03  1.4142075212396450e-03  1.4024289793257477e-03  1.3506571885478617e-03  1.3615500677153678e-03  1.4215413222828548e-03  1.4265873112010992e-03  3.9194126478994922e-04  1.2360016734784818e-03  1.1492095482167474e-03  5.4129632399043206e-04  7.0497153524948968e-04  7.0876217551280193e-04  9.8356335849518256e-04  5.8373597683190265e-05  5.0630937696976512e-04  1.0966401654602406e-03  1.4375065395367463e-04  7.0925796371796234e-04  1.4476806119287046e-03  1.4622589935228021e-03  6.2411938752572377e-04  3.3924168548836236e-04  3.4142299358803365e-04  4.2224181726574516e-04  3.4112962721385406e-04  1.2673465212141080e-03  1.5672355500678747e-03  1.5981015847101236e-03  3.8184046908390550e-04  3.8181578786840499e-04  4.6280536962672576e-04  4.2223253139970861e-04  3.8184023072388199e-04  2.3706372542987409e-05  5.2906094611110128e-04  6.6419528693495726e-04  1.7188953694361175e-04  7.3739919335428670e-04  8.2040054749624549e-04  8.7219296304824644e-04  1.0329099900512548e-03  6.6434802711449006e-04  6.5454310731471684e-04  5.9322054781712184e-04  2.1603030127727955e-04  6.6123150380064744e-04  1.1632349510461298e-03  9.0992696114580002e-04  9.1688546783682602e-04  2.1840887130031142e-05  4.6821834563187925e-04  2.9160493974827501e-04  9.5558777801606014e-04  1.1387051061852911e-03  9.8606518888215856e-04  7.8612263003356015e-04  1.3014031610929222e-03  1.3321411541154903e-03  1.3358572629810915e-03  1.2941736877128361e-03  6.2015971231120547e-04  7.8725601094575164e-04  8.3545828669342613e-04  8.6886390570207973e-04  1.1496597225643447e-03  5.7480782472609914e-04  9.8952919237105540e-05  1.6707527590523657e-04  7.4763343532203692e-04  9.5042174950651513e-04  1.4993376836845758e-04  6.5445261008932284e-04  2.6078892630647149e-04  1.4210512320371859e-03  1.3101897554837142e-03  1.2968679135529177e-03  1.3275918561733680e-03  1.3501367726758522e-03  1.3983163887323973e-03  1.3618043808359755e-03  2.9958744917445374e-04  1.2685302194946773e-03  2.0932875352883452e-05  7.9365471410694250e-04  1.8050909420360504e-04  2.4623238267533617e-04  4.7946191048144424e-04  3.2264908325421309e-04  5.4724875324715548e-04  1.0826282864041005e-03  1.0525817749223905e-03  1.0796236646821607e-03  1.3147795743464264e-03  1.4911050971335462e-03  1.4267544260871776e-03  1.8944971999855558e-04  1.3121896765305907e-03  1.1831586580212175e-03  1.1243648369791469e-03  3.0133957706266233e-04  1.2813113332157941e-04  8.6417724354412176e-04  7.4820666495827200e-04  1.4502496061915649e-03  1.4294095911090044e-03  9.2726236935178759e-05  1.3174899719565730e-03  6.9363935089527162e-04  1.3835926161180755e-03  1.3837089021339877e-03  5.8042457313351185e-04  5.6803447234169053e-04  1.1120024718185959e-03  5.4024110525726688e-04  6.1830720397050641e-04  1.0741105793468724e-03  6.6240414600522626e-04  1.0335699957528389e-03  6.9363706118654486e-04  5.0681156603894480e-04  7.2756961550207082e-04  1.1466041130855122e-03  1.0309117427414604e-03  1.0097056376930081e-03  9.6632314160607327e-04  9.8764984946683515e-04  9.4745007661890834e-04  1.0059087970531871e-03  2.5488545170615403e-04  2.1660348093292190e-04  1.1454657037377120e-04  1.4076225577507378e-03  1.4093933767207081e-03  1.3629767833683683e-03  8.8981000474744147e-04  1.4575503570062388e-03  9.4004920833524975e-04  8.0745879328610244e-04  2.3222095439514394e-04  2.8084609148304847e-04  4.8283603074308158e-04  2.9093710787866781e-04  2.0622751768471412e-04  1.2132772994745910e-03  8.0421196986177486e-04  7.8522037504615211e-04  7.7170532509852376e-04  1.2471208358112520e-03  1.2745601000245354e-03  4.0541715130820689e-04  3.1113311009403215e-04  4.3237010293138977e-04  5.1991115398599482e-04  7.8056511738879030e-04  1.1896056522729874e-03  3.5154914273634579e-04  1.2045286094026972e-03  1.1729306538805363e-03  1.2582020105608241e-03  2.1747853857160074e-04  4.4247318548586552e-04  5.4616653623832217e-05  8.2410812218367761e-04  1.2295088385249418e-03  2.3843891160701969e-04  4.8504765230370081e-04  6.7036452043883906e-05  8.8835321080564533e-05  9.6657500452029501e-05  1.4139060887592429e-03  5.0303927877155341e-04  7.3001798183653329e-05  9.8252992008657423e-05  8.2072645240621847e-05  1.1083905323223018e-03  5.8374471363996957e-04  1.3261210685891023e-03  8.5623374108553373e-04  2.3890370995330402e-04  1.2760850160272047e-03  1.2296389878604095e-03  1.2400978645370150e-03  9.9278689257071488e-04  1.0682823582118680e-03  9.6162911555783075e-04  4.6279352542867754e-04  3.4142540146161392e-04  2.6096402938052810e-04  3.8197321949601004e-04  9.9197640024493083e-04  6.1219484790847514e-04  1.2008749452605066e-03  7.6580618911687348e-04  1.4309862850690996e-03  1.4261266432185091e-03  1.5137299673687521e-03  1.7952485874337545e-04  1.1102149578466063e-03  8.7878791106872807e-04  1.3297648615994177e-03  1.2185553159164096e-03  6.7466100906552699e-04  1.0279261658547837e-03  1.3048112485735542e-03  7.6603119363360216e-07  1.0546768370551123e-05  3.7246468495198150e-04  4.1145356002520513e-04  1.7994972408437085e-04  7.4524799843261598e-04  2.5309816811048522e-04  8.4266766482834316e-04  8.4436532013626908e-04  8.2651916941768025e-04  1.0470721024518233e-03  1.0706306448350742e-03  4.4292003942109304e-04  9.3204662174104598e-04  6.7597601873292050e-04  7.7349941204152956e-04  7.6702364589674443e-04  1.0139713414014789e-03  1.8611634906996538e-04  1.1590110017358378e-03  9.3004915847634485e-04  9.5065918516984036e-04  9.2714787435779593e-04  7.9076293441478912e-04  1.1803269096436744e-03  3.1902347298242909e-04  3.1906083041415424e-04  2.9741339080918000e-04  1.3414833040801242e-03  5.0993629962340508e-04  1.3074169538933255e-03  1.0291930586314973e-03  1.0037658352251579e-03  2.2008410310436440e-04  1.3965679634289453e-04  5.8344493684336126e-04  9.4741238716294419e-04  2.2042931141575721e-04  8.2596735913758603e-04  3.6163011506621181e-04  3.0080486897538140e-04  3.4148789228851507e-04  5.0331036871453739e-04  5.8136833597608747e-05  9.8734500394592837e-04  5.4332417873659278e-04  7.0490930264141788e-04  7.4523091766442529e-04  5.8219856659938590e-05  1.3939138992068254e-04  2.6066266364235216e-04  5.4336438590978000e-04  7.0504939015852877e-04  1.4169347543134009e-03  -1.3970795131145493e-08  4.4244146602336705e-04  3.6166495465616818e-04  1.1491865005895711e-03  1.1892551190297350e-03  1.2310068772291443e-03  1.1085934842259340e-03  1.3540999986718881e-03  1.1485962519948816e-03  1.8240534193234494e-03  1.4495603096185950e-03  1.5237532731562809e-03  1.7732259879480970e-03  1.4979277510279785e-03  1.2718138535464912e-03  1.2836149158407520e-03  1.3667449708616836e-03  8.7368214732017289e-09  1.0280469754384792e-03  3.6162994536075954e-04  1.4773969415483412e-03  9.0671886444698376e-04  9.0702574860321522e-04  1.0682038841414447e-03  8.6627489843244486e-04  1.5766650364780451e-03  9.6362143540163858e-07  8.6682225256248910e-04  4.9974898481647332e-04  3.8183923131192689e-04  4.0204342741577637e-04  4.2223357736443615e-04  4.0205700483933704e-04  4.2216022976789767e-04  3.8185200084490294e-04  3.8267075780309864e-04  6.2464522623311672e-04  6.2408315062164308e-04  4.2236906487918299e-04  1.1155613247040821e-05  7.0379182050954567e-04  1.0891376122397775e-04  5.9383836851906310e-04  7.0316106729559824e-04  6.2880560176049112e-04  1.2845659967093944e-03  9.8592370011164605e-04  4.6935740425546499e-04  2.8049200266472155e-04  1.6980166352718857e-04  3.8499703890541054e-05  6.6280323045880645e-04  2.1171164961710290e-04  4.7253495883763780e-04  1.3475243661871476e-03  1.3123908499464072e-03  8.5259057267880170e-04  8.2735687597839866e-04  1.1026979756282267e-04  1.3886092521626795e-03  1.3229692126463682e-04  1.4818499682699145e-03  1.3516546981699662e-03  8.9882590883189344e-04  4.5142277689660644e-04  2.4207362980112020e-04  4.8655028297349650e-04  3.3640256151084246e-04  7.3940774044087032e-05  1.0518349192526267e-03  5.4802234819052254e-04  1.2972345005063731e-03  1.4297973857339173e-03  1.1457582461327175e-03  1.7509876821133474e-04  1.6383492036222731e-04  7.3092068226504386e-04  1.2894036918486530e-03  1.2676204429896741e-03  1.2994109077473612e-03  5.8270457821569860e-04  8.0502595394891282e-04  3.8053764228347539e-05  8.6671661921353257e-04  9.6872054981494450e-04  3.4354329757340502e-04  4.6753354195549872e-04  1.0233778828720418e-03  1.6751174300866042e-04  1.0889648206968711e-03  5.9802133904405023e-04  5.9385968871455920e-04  1.0926474793698686e-03  1.9890392854332714e-04  1.1952158259560071e-03  6.1850015525789738e-04  7.5578718263349292e-04  1.1825572183484798e-03  7.7568607713097496e-05  1.3911098333517369e-04  6.0908714724533477e-05  1.0515664125571712e-03  1.0572427175181717e-03  1.2538454686419646e-03  1.6064835971879117e-03  2.7205473946881814e-04  2.0218417018045938e-04  7.3747952600812777e-04  1.2687116109064303e-03  8.2132109074488163e-04  1.3988190144962913e-03  8.2516858114711268e-04  5.2379370676207805e-04  9.4937997872101860e-04  8.8963755124836475e-04  1.1081296131818161e-03  4.2018245887142146e-05  6.9256957062092451e-04  1.2813971959116927e-04  6.3749775777854911e-04  1.1378987942848820e-03  1.5423160376907671e-03  7.5528333927415644e-04  1.8978328246853387e-04  9.7678643491720370e-04  1.0676176436248917e-04  5.5958434916581899e-04  1.2450013330727600e-03  1.3262033582576585e-03  3.6667700216291674e-05  1.6817535449309486e-05  5.5343367110849136e-04  8.4987161033486206e-04  5.0658502272659582e-04  5.4068722180617215e-04  7.3523262996507245e-04  2.4992323952991634e-04  1.0331762693032954e-03  1.1508541915344907e-03  1.3941350780477277e-03  1.3697904583594958e-03  1.3995569991394625e-03  1.1668105968253046e-03  3.1109014675593616e-04  1.2859434047728137e-03  1.2195417416990177e-03  1.2427813110801322e-03  1.2301933136061127e-03  1.7221752887256668e-04  1.4379360395403403e-04  7.5294577597261286e-04  5.7303677519067063e-04  5.2352685047702676e-04  8.5489492178502269e-04  7.8556502115809492e-04  5.3328399450206182e-04  7.2489892889724414e-04  7.2379923825774146e-04  1.4186296052471337e-03  1.1194644834275069e-03  7.9057122484000621e-04  2.1663773013681458e-04  9.4709945069832433e-04  9.1523492550607186e-04  7.6404272897999783e-04  9.0086131831681874e-04  1.0581550438696465e-03  1.3682063297237321e-03  1.3191622640273239e-03  8.3621657918924298e-04  1.4259396763841687e-03  8.7938945094578370e-04  8.7648867420110990e-04  1.3840511130332931e-03  1.3725655078974217e-03  1.3693718721743994e-03  6.3686582444602460e-04  6.4104165548842912e-04  1.0830237833574586e-03  8.6270244813141145e-04  6.7696751715771910e-04  1.4110642312547316e-03  1.3599595311835112e-03  7.8832267808356742e-04  1.2196697514899539e-03  1.3237354868449007e-03  1.3247183607018448e-03  9.8799427413251670e-05  5.5754872664920256e-04  1.0014397382247663e-03  5.3686227030282724e-05  6.8539861704136162e-05  4.7966364856648299e-05  6.6196321186929002e-04  6.4626248382277957e-04  6.3571259358598188e-04  5.5524982483325818e-04  2.6841011771865060e-04  2.7075936978893090e-04  1.3150378982011675e-03  5.6374022060922194e-04  1.1318797544972641e-03  1.1059585525078240e-03  5.8461380758557415e-04  1.2933094238805329e-04  1.5394656958961611e-04  1.5264068120925941e-04  1.3706633328124232e-04  1.0985089625020882e-03  1.1230532876602293e-03  1.1186538070625707e-03  7.5494942781507350e-04  3.3558820190505480e-04  3.9194774975258724e-04  3.4745841091246083e-04  1.2137428488103268e-03  2.7076460773102306e-04  3.2627755536116546e-04  4.5261001990480777e-04  2.8588599217342398e-04  2.6570245484045164e-04  5.0816360956701086e-04  1.2594731442701712e-03  1.1995814748116253e-03  4.3227744471879397e-04  1.2415856462924912e-03  2.9598899697642986e-04  3.0608238036381255e-04  3.1617426613987008e-04  4.3746511146357632e-04  4.2225982634034969e-04  4.0629932400642655e-04  3.7759435575971431e-04  4.1829847323452166e-04  3.9723224833396084e-04  9.2917488008305714e-05  1.3356631657607415e-05  6.0825865657080855e-04  4.7280543358994988e-04  1.1255326000446894e-04  7.0594528916438604e-04  9.1103118823465527e-04  8.8411278992570888e-04  1.2034282972647739e-03  9.1468449529374593e-04  1.0193886425735772e-03  1.0627372333249481e-03  8.0715734551356890e-04  1.2345984361801414e-03  1.1734750853392253e-03  1.0005968251006887e-04  2.5059304009501923e-04  9.8344434776554898e-04  9.6808409405831563e-04  8.5636872914871887e-04  4.3089240834724159e-05  2.7262854904566363e-05  1.1477570878286982e-05  6.4107474785051822e-04  1.1886125659311300e-03  6.9363731534742557e-04  7.1540833706345251e-04  7.1020409350878522e-04  1.4451169437582436e-04  8.1421183026570581e-04  6.7802487335983416e-04  7.1945429706195361e-04  6.0973888384207513e-04  1.0786622303784129e-05  8.9938974177052305e-04  9.1693114908522047e-04  9.2688734947449052e-04  1.4437652196704379e-03  1.3251855499555930e-03  4.7274450117253976e-04  4.5721182043988856e-04  1.1392112896045676e-04  1.1084682483709014e-03  8.1978306756261624e-04  1.0952338567296808e-03  7.3762692126158228e-05  1.3948196314765128e-03  1.0380514524129312e-03  9.7776620094055730e-04  5.7917329763714637e-04  1.3902175488217006e-03  6.6898979105430652e-04  6.6017190656944482e-04  6.4990735281259720e-04  1.2153752587378472e-03  1.1790886348229993e-03  1.4035369441946339e-03  1.0652000027968197e-03  1.1661445013774405e-03  8.9674908859069355e-04  6.0860290909185331e-04  1.2930294039478589e-04  5.1918399538340037e-04  6.2416120176275256e-05  1.0674453533535651e-03  1.3757875564289995e-03  1.4074405494308320e-03  1.3387465445861273e-03  3.3637715003431837e-04  1.4137708683453988e-03  1.3630399230822594e-03  1.3219258016947204e-03  1.3131103317213673e-03  1.4411574847370847e-03  1.3266500910017367e-03  1.4330876555562592e-03  1.0075482786802764e-03  2.4833526259108551e-04  1.1379083053816006e-03  2.0158297243516555e-04  1.4395425736308542e-03  1.0957496952336495e-03  1.0825913019866080e-03  6.9515311202410311e-04  9.9848683214584055e-04  9.9613561324844485e-04  9.7745804438873884e-04  1.5946143745952741e-04  8.5359199524277017e-05  1.0662345310095663e-03  1.5409217719780438e-05  3.0870022915628658e-05  3.4904665856836387e-05  7.3509378227135927e-04  7.3495014403109960e-04  1.4817162363109121e-03  7.9268015946577525e-04  1.2218736245757107e-03  7.2369228489406045e-04  1.1356275612649867e-03  1.1593767225524343e-03  1.7950972785703341e-04  1.6974672918333941e-04  1.4305193500196559e-03  9.3081600560395231e-04  1.1860924783274772e-03  6.2783491219540089e-04  5.2902418010432252e-04  5.4971307105343772e-04  4.7151529625878422e-05  4.5410580362096248e-04  6.9027215390391546e-04  6.9477256286544227e-04  5.7888542304020607e-04  6.8478641921613565e-05  9.0196053630895053e-04  1.2438269529827263e-03  1.0802931976269885e-03  8.7658480647266666e-04  8.1600866379084337e-04  8.3489645493074890e-04  1.3028151823132976e-03  1.3118964855019918e-03  1.3369154545579598e-03  5.1158903004979871e-04  4.943