<?xml version="1.0"?>
<VTKFile type="UnstructuredGrid"  version="0.1"  >
<UnstructuredGrid>
<Piece  NumberOfPoints="1079" NumberOfCells="1944">
<Points>
<DataArray  type="Float64"  NumberOfComponents="3"  format="ascii">0.08500000000000001 0.02 0  0.005 0.02 0  0.005 0.03 0  0 0.03 0  0 0 0  0.005 0 0  0.005 0.01 0  0.08500000000000001 0.01 0  0 0.015 0  0 0.0075 0  0 0.0225 0  0.04500000000000001 0.02 0  0.04500000000000001 0.01 0  0.025 0.01 0  0.025 0.02 0  0.065 0.02 0  0.065 0.01 0  0.035 0.02 0  0.035 0.01 0  0.07500000000000001 0.02 0  0.07500000000000001 0.01 0  0.015 0.02 0  0.015 0.01 0  0.05500000000000001 0.01 0  0.05500000000000001 0.02 0  0.07000000000000001 0.01 0  0.07000000000000001 0.02 0  0.05 0.01 0  0.03 0.01 0  0.03 0.02 0  0.04000000000000001 0.01 0  0.01 0.01 0  0.02 0.02 0  0.06 0.015 0  0.08500000000000001 0.015 0  0.05 0.02 0  0.07250000000000001 0.015 0  0.04000000000000001 0.02 0  0.03750000000000001 0.015 0  0.0525 0.015 0  0.02 0.01 0  0.01 0.02 0  0.0275 0.015 0  0.0125 0.015 0  0.08000000000000002 0.01 0  0.08000000000000002 0.02 0  0.0325 0.014375 0  0.04291666666666667 0.015 0  0.065 0.015 0  0.005 0.005 0  0.005 0.015 0  0.02208333333333334 0.015 0  0.07791666666666668 0.015 0  0.005 0.025 0  0.06 0.01 0  0.06 0.02 0  0.01729166666666667 0.01572916666666667 0  0.04770833333333334 0.01427083333333334 0  0.06875000000000001 0.01625 0  0.008750000000000001 0.01625 0  0.05625000000000001 0.01625 0  0 0.00375 0  0 0.01875 0  0 0.01125 0  0 0.02625 0  0.08145833333333334 0.01354166666666667 0  0.0675 0.01 0  0.0075 0.0125 0  0.0625 0.0175 0  0.0575 0.0125 0  0.0625 0.0125 0  0.08207465277777778 0.01707465277777778 0  0.06767857142857144 0.01321428571428571 0  0.0175 0.01 0  0.01875 0.01291382575757576 0  0.0475 0.02 0  0.04564168086314595 0.01679860519591141 0  0.00296875 0.0125 0  0.0025 0.03 0  0.0025 0 0  0.00296875 0.0175 0  0.01521990740740741 0.0132349537037037 0  0.0497800925925926 0.0167650462962963 0  0.0325 0.02 0  0.03474264705882353 0.01674632352941176 0  0.03750000000000001 0.02 0  0.03025735294117647 0.01674632352941176 0  0.0275 0.02 0  0.0525 0.02 0  0.0125 0.01 0  0.04020833333333334 0.01322916666666667 0  0.03750000000000001 0.01 0  0.0225 0.02 0  0.02479166666666667 0.01677083333333333 0  0.07520833333333335 0.01322916666666667 0  0.07250000000000001 0.01 0  0.07520833333333335 0.01677083333333334 0  0.07250000000000001 0.02 0  0.04020833333333334 0.01677083333333333 0  0.0225 0.01 0  0.02375 0.01262152777777778 0  0.04250000000000001 0.02 0  0.04250000000000001 0.01 0  0.07750000000000001 0.01 0  0.07750000000000001 0.02 0  0.05036151960784314 0.01294424019607843 0  0.0705560064935065 0.01284699675324675 0  0.05458333333333334 0.01291666666666666 0  0.0021875 0.024375 0  0.005 0.0275 0  0.01125 0.0175 0  0.01463848039215686 0.01705575980392157 0  0.01 0.01375 0  0.03625 0.0125 0  0.0021875 0.009375 0  0.05375000000000001 0.0175 0  0.07125000000000001 0.0175 0  0.005 0.0025 0  0.0021875 0.005625 0  0.02655220103578155 0.01234889948210923 0  0.002187499999999999 0.020625 0  0.02979166666666667 0.01302083333333333 0  0.0525 0.01 0  0.07895833333333334 0.0125 0  0.01994277885235332 0.01704213007736944 0  0.07934656179076068 0.01733823814273861 0  0.04505722114764669 0.01295786992263056 0  0.06625 0.0175 0  0.006250000000000001 0.0175 0  0.05750000000000001 0.02 0  0.05875000000000001 0.0175 0  0.005 0.0225 0  0.005 0.0075 0  0.002375 0.027375 0  0.002375 0.002625000000000001 0  0.0475 0.01 0  0.0175 0.02 0  0.0325 0.01 0  0.03375 0.0121875 0  0.04261299435028249 0.01749205508474576 0  0.08500000000000001 0.0125 0  0.08250000000000002 0.01 0  0.02121963399965531 0.01224824108143494 0  0.0675 0.02 0  0.0125 0.02 0  0.02720152243589744 0.0175 0  0.03715165441176471 0.0175 0  0.08500000000000001 0.0175 0  0.0275 0.01 0  0.0025 0.0149560546875 0  0.0075 0.01 0  0.0075 0.02 0  0.06526785714285716 0.0125 0  0.01281031447005516 0.0125 0  0.0625 0.015 0  0.06 0.0125 0  0.05750000000000001 0.01 0  0.0625 0.02 0  0.0625 0.01 0  0.08250000000000002 0.02 0  0.04260103740101855 0.01252623201412851 0  0.02240052247582197 0.01750164767101344 0  0.07293583459427785 0.01238479732953041 0  0.005234374999999999 0.012265625 0  0.03528131980640358 0.01454684009679821 0  0.0325 0.01760027210036557 0  0.02532593822924343 0.01428227733767297 0  0.08009952069819683 0.01527145502895417 0  0.01987282359856536 0.01482587683689801 0  0.04828232595121382 0.01210233572595705 0  0.01671767404878618 0.01789766427404295 0  0.05125 0.01829007549029352 0  0.05247215456215357 0.01288882122882024 0  0.07338729919678716 0.01799385040160642 0  0.03838729919678716 0.01200614959839357 0  0.07717482110586968 0.01780301674207099 0  0.04771860040890012 0.01773306039388322 0  0.03125 0.01160380747126437 0  0.06875000000000001 0.01154265873015873 0  0.07625000000000001 0.01154065860215054 0  0.01625 0.01153997817696946 0  0.068125 0.018125 0  0.05437500000000001 0.015625 0  0.066875 0.015625 0  0.07039794950204951 0.01494384850614853 0  0.05687500000000001 0.018125 0  0.006875 0.015625 0  0.008749999999999999 0.01833333333333333 0  0.010625 0.015625 0  0.05625 0.01416666666666667 0  0.05812500000000001 0.015625 0  0.0449088595298192 0.01494528408816316 0  0 0.016875 0  0 0.013125 0  0.04962452342047931 0.01478673066448802 0  0.0153754765795207 0.01521326933551198 0  0.0771774565913315 0.01322498191305479 0  0.01857756431135545 0.01840228599899994 0  0.04642243568864456 0.01159771400100006 0  0.08125000000000002 0.01155637254901961 0  0.08317650804863432 0.0118234919513657 0  0.08288217288011697 0.01511353252923977 0  0.02837253504384828 0.0117177464035174 0  0.03896057962520807 0.01831163685754031 0  0.01125 0.0114244162490927 0  0.00935910490099115 0.0119067901980177 0  0.02946078431372549 0.01495404411764706 0  0.02875 0.0185829434466942 0  0.002968749999999999 0.0225 0  0.064375 0.016875 0  0.00296875 0.0075 0  0 0.001875 0  0 0.005625 0  0 0.009375 0  0 0.020625 0  0 0.024375 0  0 0.028125 0  0.06062500000000001 0.01812500000000001 0  0.008303571428571429 0.01446428571428572 0  0.01375 0.01865917058160413 0  0.05137790313978056 0.01143372888932909 0  0.04125000000000001 0.01131513063942604 0  0.04101690263896279 0.01844430285842771 0  0.02399563533148224 0.01844349395710867 0  0.08125000000000002 0.01868815426145731 0  0.05354684380692146 0.01145463537600848 0  0.01699195823639423 0.01315138909884649 0  0.07598357371794873 0.015 0  0.04098357371794872 0.015 0  0.003744047619047619 0.00375 0  0.003344630281690141 0.02580853873239437 0  0.04625 0.0187354532243972 0  0.06388392857142858 0.01138392857142858 0  0.06375 0.01375 0  0.05875 0.01375 0  0.06375 0.02 0  0.00622802734375 0.01372802734375 0  0.003630681818181818 0.001369318181818182 0  0.003630681818181818 0.02863068181818182 0  0.06125 0.01625 0  0.06125 0.01125 0  0.05625000000000001 0.01 0  0.05875 0.01125 0  0.06125 0.01375 0  0.08337864763241221 0.0183786476324122 0  0.05213634138653413 0.01674432930673294 0  0.04375000000000001 0.01 0  0.07424178685897437 0.01529258578431373 0  0.03924178685897436 0.01529258578431372 0  0.03410139294454583 0.01843406022904556 0  0.03089860705545417 0.01843406022904556 0  0.02094160484316717 0.01850229584291991 0  0.04375000000000001 0.02 0  0.04437042160883325 0.01820701498672512 0  0.04816311705429156 0.01600061344661149 0  0.07151224904251052 0.0114127410511319 0  0.04395528506193162 0.01639387970349481 0  0.0128750358694518 0.0167500179347259 0  0.02855808448399799 0.01642839899839741 0  0.02812690373330794 0.01340955081400569 0  0.08358500641945087 0.01351822349116885 0  0.05590277777777778 0.01173611111111111 0  0.06683110430364615 0.01164926404662283 0  0.02573206694914602 0.01842532451809762 0  0.01438126661842046 0.01166701193099454 0  0.02384283211216029 0.01526549696571563 0  0.03625 0.02 0  0.004609375000000001 0.0182421875 0  0.003398437500000001 0.01943359375 0  0.001728307845744682 0.01894718251329787 0  0.004377805359085963 0.01656966216675735 0  0.04649673309852075 0.0153889662370871 0  0.03615513600614297 0.01592654988586041 0  0.03316985071935832 0.01598763605018279 0  0.03110111603888768 0.01529816275177977 0  0.01370614113484869 0.0138804542047638 0  0.04930041102671841 0.01842260568883502 0  0.07875000000000001 0.02 0  0.0745395359848485 0.01165101111925709 0  0.03860755698543604 0.01373741558556884 0  0.02605038706571737 0.01573944002207753 0  0.07559826163500957 0.01841729376139847 0  0.04437500000000001 0.01149157931286774 0  0.06874116707361365 0.01454618473032123 0  0.003761917372881356 0.0239307468220339 0  0.003984374999999999 0.01125 0  0.003768503289473684 0.01392539576480263 0  0.001796875 0.0111328125 0  0.003761917372881356 0.008930746822033899 0  0.005 0.00625 0  0.003761917372881355 0.0210692531779661 0  0.06633928571428571 0.01410714285714285 0  0.006484375 0.01125 0  0.08364120589325512 0.01657288979763549 0  0.03576267476503373 0.0184116442851204 0  0.07370875846579374 0.0137848203678562 0  0.06964285714285715 0.01758928571428571 0  0.05520833333333334 0.01833333333333333 0  0.06491071428571429 0.01839285714285714 0  0.0510098951944636 0.01559941474766356 0  0.01786087179886325 0.0115702210443714 0  0.01972197383235524 0.01160576093166696 0  0.01804697593127788 0.01433503795474974 0  0.001644074528704677 0.01642892723865279 0  0.00125 0.03 0  0.001497685185185185 0.001267746913580247 0  0.07315451164202422 0.01643443118912983 0  0.001233906745910645 0.0140625 0  0.01162635071030191 0.01362229857939618 0  0.01528023503083844 0.01845923557506155 0  0.06625 0.02 0  0.07695012019230771 0.01624387078484555 0  0.03139091092855769 0.01320776147621796 0  0.03857339107781042 0.01675295051810485 0  0.001754993120977522 0.02590789105493891 0  0.002288757784711197 0.00412546923654445 0  0.07914382119690884 0.01404430049871201 0  0.001391810103286306 0.01257390899021902 0  0.0419501201923077 0.01614675005432421 0  0.001484375 0.007018229166666667 0  0.001484375 0.02201822916666666 0  0.048
[...]
<PointData  Scalars="pressure"> 
<DataArray  type="Float64"  Name="pressure"  format="ascii">-1.1330856861173675e-04  2.8886874199515404e-02  1.8408801448065566e-02  9.3455933423773428e-03  1.0904670452311277e-02  4.4770722538452074e-03  2.8750040315853174e-02  -1.0902343884931232e-04  2.8743721373285413e-02  3.0138582835282094e-02  3.0466313882811045e-02  1.4107459493347406e-02  1.4108796677813749e-02  2.1178583043246910e-02  2.1178406621428537e-02  7.0298699818842946e-03  7.0336926670404778e-03  1.7642331960968007e-02  1.7640252105765628e-02  3.4877259231463572e-03  3.4988725493167883e-03  2.4716839327512927e-02  2.4707756743920992e-02  1.0557582044344137e-02  1.0565772498673513e-02  5.2654361428911721e-03  5.2652792992965661e-03  1.2339966514983224e-02  1.9408618798711225e-02  1.9409590277734479e-02  1.5876526457473353e-02  2.6479870327981030e-02  2.2944161442293703e-02  8.8007378500713617e-03  -8.9688311898562308e-20  1.2335613907575829e-02  4.3788244527858617e-03  1.5882247429857263e-02  1.6757441303007992e-02  1.1452613604002196e-02  2.2943410457453937e-02  2.6507790963530665e-02  2.0292366704708062e-02  2.5592879698763799e-02  1.7246807212312840e-03  1.7109066779147195e-03  1.8525017504919746e-02  1.4841789850055588e-02  7.0316421031576372e-03  3.1157734624124616e-02  2.8085916193211234e-02  2.2206862691053347e-02  2.4632789991163575e-03  3.1620334970818662e-02  8.7985651372852573e-03  8.7916923130351623e-03  2.3900119769337178e-02  1.3146797676124903e-02  5.7055484953529205e-03  2.6914744974801463e-02  1.0127387727073226e-02  3.1090036997802165e-02  2.9234879786462852e-02  2.9100884583735484e-02  3.1537829144782641e-02  1.2149354711811652e-03  6.1464526241006923e-03  2.7351875544927851e-02  7.9156912323688107e-03  9.6848858212532571e-03  7.9157720150716416e-03  9.9638096135675120e-04  6.0842678761938397e-03  2.3826332981205310e-02  2.3384645977155016e-02  1.3207314709728803e-02  1.3877866087557958e-02  2.8674440841437592e-02  4.2264097800501235e-02  4.1673471801184123e-02  2.8744495209221288e-02  2.4631355253999846e-02  1.2413676742663438e-02  1.8518525927702575e-02  1.7732424275841364e-02  1.6752736320626654e-02  1.9317860436414994e-02  2.0289721993069384e-02  1.1453245890652872e-02  2.5595859556601836e-02  1.5799819257207370e-02  1.6761208970721600e-02  2.2057204958230197e-02  2.1249601846261068e-02  3.4209036771337426e-03  4.3790992261788881e-03  3.4204869057280988e-03  4.3673489702082558e-03  1.5800243130121124e-02  2.2060384436183272e-02  2.1618320226614869e-02  1.4988182842329341e-02  1.4995987631750774e-02  2.6279069025842939e-03  2.6135679065219953e-03  1.2208842543583204e-02  5.0670893377224918e-03  1.0716173063152612e-02  3.1190974306437743e-02  3.3043284677080467e-02  2.6039886909013432e-02  2.4839347447509024e-02  2.6470581591988285e-02  1.7198506306978518e-02  2.9519777109234698e-02  1.1011178736107153e-02  4.8208830374794846e-03  3.2327951342774108e-02  3.0794610055917149e-02  2.0627753337393799e-02  2.9734790576171892e-02  1.9482128527347101e-02  1.1445644879246862e-02  2.0925867407761839e-03  2.2963132861845929e-02  1.9563067389159507e-03  1.4084425242408060e-02  6.5898284765169655e-03  2.7824286652569290e-02  9.6951501273576171e-03  9.2438743367283371e-03  3.0450583741692929e-02  3.0134097859080170e-02  3.2754046196419744e-02  3.2069897917449464e-02  1.3220713998624628e-02  2.3811971259790548e-02  1.8524864622474334e-02  1.8083933001057439e-02  1.4949345628933963e-02  -3.3934621190296636e-06  8.4150856208835127e-04  2.2512361633357531e-02  6.1409720286029739e-03  2.5601846000821996e-02  2.0397910267947572e-02  1.6881041321589789e-02  -3.1127684303387265e-06  2.0281373807584907e-02  2.8594161892853385e-02  2.7387505314182034e-02  2.7421204281217262e-02  6.9366973128848894e-03  2.5481999494132559e-02  7.9160827673536854e-03  8.8008340051615088e-03  9.6845840623985876e-03  7.9109500809565643e-03  7.9002681365028804e-03  8.4511062645324924e-04  1.4953651338931583e-02  2.2094607750486293e-02  4.2248347175825370e-03  2.8142442308024967e-02  1.7541763323245231e-02  1.8524836595795336e-02  2.1060953360941551e-02  1.6935481449739686e-03  2.2987948482742687e-02  1.2943821606932462e-02  2.4103376770979342e-02  1.1894075182749217e-02  1.1462328441452556e-02  4.0639593429649791e-03  1.6443360741789349e-02  2.7251550597245239e-03  1.3141408739350392e-02  1.8966140450643817e-02  5.7056749398948867e-03  3.0523613206906762e-03  2.4267254489377783e-02  5.9267496738340999e-03  1.0789951433166080e-02  6.3685884932801360e-03  5.1225784581764716e-03  9.9081418842035061e-03  2.7539179121571427e-02  2.6941177420376463e-02  2.6254611550882899e-02  1.0127009015683504e-02  9.4641971490121522e-03  1.4137023805649533e-02  2.8878188948156563e-02  2.8820467498735691e-02  1.2469136857413575e-02  2.4577405118021454e-02  2.7243027276085000e-03  2.3444600907158848e-02  1.3601335971067437e-02  1.2793973772629308e-03  5.9798501687086862e-04  7.2339101833651914e-04  1.9983172634653691e-02  1.6241863004564087e-02  2.6033517471593440e-02  2.6700688154141314e-02  1.9599253098169775e-02  1.9849991725704702e-02  3.0450711433247506e-02  7.2525799779255187e-03  3.0143838966197947e-02  3.0979616056498419e-02  3.0725410224756333e-02  2.9578224376968436e-02  2.9793503511466403e-02  3.1102882754348232e-02  3.1211887974256964e-02  8.5795577406108849e-03  2.7056512373843204e-02  2.5156049615849330e-02  1.1848962215694224e-02  1.5431842009293232e-02  1.5514815382343247e-02  2.1530264195896952e-02  1.2776934471479472e-03  1.1083099995926214e-02  2.4005591563495885e-02  3.1466265069216865e-03  1.5525677292461704e-02  3.1703741476799739e-02  3.1973361592217725e-02  1.3661975421505705e-02  7.4259602521773794e-03  7.4737063938731503e-03  9.2428448776440131e-03  7.4672861284443082e-03  2.7743620965718356e-02  3.4283472060273316e-02  3.4852142798283803e-02  8.3584515357264695e-03  8.3579059306687076e-03  1.0130793619535970e-02  9.2426407300997791e-03  8.3584463079856720e-03  5.1883706162137670e-04  1.1581135544493701e-02  1.4539244028344500e-02  3.7625908845270637e-03  1.6141694177153176e-02  1.7958609984401488e-02  1.9092351186494560e-02  2.2610455452844427e-02  1.4542592909774912e-02  1.4327960131141676e-02  1.2985598136607334e-02  4.7288287694635441e-03  1.4474369396022493e-02  2.5463122221269702e-02  1.9918356508816012e-02  2.0070680941720365e-02  4.7805954403747270e-04  1.0249278362278843e-02  6.3831817743772012e-03  2.0917876073245040e-02  2.4926534091373586e-02  2.1585035421122934e-02  1.7208253521314706e-02  2.8483560243336994e-02  2.9152865094921168e-02  2.9234951160982257e-02  2.8327752285469687e-02  1.3575300791760381e-02  1.7233068777593501e-02  1.8288224930383793e-02  1.9019479813257578e-02  2.5166243195190455e-02  1.2582543574735882e-02  2.1659723409476338e-03  3.6572055585912520e-03  1.6365723907019677e-02  2.0804793996109096e-02  3.2819760569879875e-03  1.4325977995596395e-02  5.7086138705811727e-03  3.1083065637525682e-02  2.8686157032054658e-02  2.8390562860716183e-02  2.9068883837932304e-02  2.9566285574308102e-02  3.0626008257510870e-02  2.9797287528643294e-02  6.5579201298194114e-03  2.7771002473914959e-02  4.5818359757566167e-04  1.7373137339841097e-02  3.9512742794897675e-03  5.3899673812092298e-03  1.0495405825750915e-02  7.0627456961023898e-03  1.1979269056294425e-02  2.3698878019950822e-02  2.3041127675016072e-02  2.3633060427687494e-02  2.8778660421436311e-02  3.2545289266930164e-02  3.1359092765998534e-02  4.1469857406931879e-03  2.8726229844659626e-02  2.5899681361338113e-02  2.4612290460974729e-02  6.5962686249095284e-03  2.8047129215164014e-03  1.8916888994401627e-02  1.6378271817309609e-02  3.1728123108119843e-02  3.1316880068699711e-02  2.0296975560765464e-03  2.8844983658786776e-02  1.5183782719337905e-02  3.0305827403524239e-02  3.0275312150589356e-02  1.2705492684375552e-02  1.2434271534401518e-02  2.4341764696117190e-02  1.1825869995700946e-02  1.3534749499675917e-02  2.3512332907766116e-02  1.4500038826469963e-02  2.2624917810942557e-02  1.5183732773667897e-02  1.1094092105786687e-02  1.5926524147307740e-02  2.5099211878809334e-02  2.2566743494970964e-02  2.2102537888193021e-02  2.1152884967592177e-02  2.1619736151576346e-02  2.0739739451379538e-02  2.2019429517387164e-02  5.5793864479215423e-03  4.7413862938712591e-03  2.5073281160390912e-03  3.0797002583159400e-02  3.0869697535862019e-02  2.9850279631757841e-02  1.9477986387457995e-02  3.1952615691152361e-02  2.0577739171803573e-02  1.7675309992028886e-02  5.0832503753391730e-03  6.1476686103863580e-03  1.0569264164674264e-02  6.3685565677461141e-03  4.5142460751743220e-03  2.6558081514421218e-02  1.7604225713639076e-02  1.7188503703997594e-02  1.6892662999132880e-02  2.7298318072073544e-02  2.7896413234378421e-02  8.8745485707283772e-03  6.8106568693536915e-03  9.4645503770504538e-03  1.1380846362621272e-02  1.7086603912074047e-02  2.6040010005886478e-02  7.6953684784097686e-03  2.6366464535042579e-02  2.5675168149917538e-02  2.7539856788017666e-02  4.7605412621329222e-03  9.6857129319715823e-03  1.1954908948105813e-03  1.8039767914073909e-02  2.6914847497367621e-02  5.2193712700624390e-03  1.0617676159760546e-02  1.4673433072827438e-03  1.9445089113929264e-03  2.1157528081267099e-03  3.0982060228532619e-02  1.1011516324952945e-02  1.5979258383590194e-03  2.1506772497498577e-03  1.7964792713947313e-03  2.4262632164645023e-02  1.2778173872709613e-02  2.9024184191729450e-02  1.8743002807094497e-02  5.2295419493674136e-03  2.7932484797367093e-02  2.6918210892035128e-02  2.7147391826006440e-02  2.1732170406666595e-02  2.3384833393550193e-02  2.1050129105119084e-02  1.0130543544301368e-02  7.4737593549233407e-03  5.7124547971552624e-03  8.3613795426374319e-03  2.1714436944898077e-02  1.3400947276430795e-02  2.6287806031981917e-02  1.6763528978805477e-02  3.1345134186665131e-02  3.1261055550698316e-02  3.3066439948940041e-02  3.9297319793088533e-03  2.4302728330873265e-02  1.9236718442216208e-02  2.9117288660328301e-02  2.6674265879994639e-02  1.4768341221739336e-02  2.2501403232237819e-02  2.8561050010390845e-02  1.6770702018334896e-05  2.3059422389829970e-04  8.1532094693106023e-03  9.0066815448127686e-03  3.9390309568063265e-03  1.6313505772875228e-02  5.5402595201709372e-03  1.8446040512199453e-02  1.8483204597381880e-02  1.8092537129253770e-02  2.2920508180784230e-02  2.3436179526760026e-02  9.6954948695543580e-03  2.0402556326095472e-02  1.4797123634826777e-02  1.6931926492692709e-02  1.6790178731541847e-02  2.2195900298570610e-02  4.0740142391722410e-03  2.5371143131543622e-02  2.0358834316444356e-02  2.0809989919036081e-02  2.0295318869563858e-02  1.7309836291425431e-02  2.5837295563978267e-02  6.9833723888487725e-03  6.9841953819232156e-03  6.5103296978252633e-03  2.9375588343428561e-02  1.1162493582011020e-02  2.8622220562752158e-02  2.2529098194036038e-02  2.1972488719036679e-02  4.8175776953148812e-03  3.0570195232911350e-03  1.2771621008189496e-02  2.0738907660781708e-02  4.8251384650824349e-03  1.8080475305572757e-02  7.9160435837134085e-03  6.5845623934442246e-03  7.4751402157695757e-03  1.1017464325239189e-02  1.2725350519782875e-03  2.1613043827229068e-02  1.1893355674317336e-02  1.5430489990039610e-02  1.6313146137451277e-02  1.2743384841256611e-03  3.0512091300657477e-03  5.7058538466790458e-03  1.1894241939790773e-02  1.5433551455698580e-02  3.0993352219534441e-02  -3.0501369914279755e-07  9.6850151376198703e-03  7.9168004765581366e-03  2.5155535933693872e-02  2.6033481818707221e-02  2.6945473814527082e-02  2.4267312206715241e-02  2.9653205231603710e-02  2.5143113783237643e-02  3.9253704174623552e-02  3.1741778312730909e-02  3.3315720613160037e-02  3.8403425042995584e-02  3.2709304046692970e-02  2.7842747399899427e-02  2.8094650971163114e-02  2.9904140165105560e-02  1.9071779928643590e-07  2.2503999166558875e-02  7.9160397406252813e-03  3.2292499184042825e-02  1.9848131075037811e-02  1.9854855347569315e-02  2.3383021881970608e-02  1.8962803666499176e-02  3.4361010529337883e-02  2.1095969748499506e-05  1.8974779188721150e-02  1.0939487166129564e-02  8.3584244970682318e-03  8.8006982160281303e-03  9.2426651943223470e-03  8.8010002810723336e-03  9.2410584844220805e-03  8.3587037947099388e-03  8.3766222454082582e-03  1.3673484089244138e-02  1.3661185089939737e-02  9.2456076722225809e-03  2.4393345503430849e-04  1.5406023508206723e-02  2.3840404074458783e-03  1.2999124953535597e-02  1.5392214384530728e-02  1.3764561023987158e-02  2.8121331741776969e-02  2.1581943308669745e-02  1.0274213718649386e-02  6.1399176526779403e-03  3.7168831116698464e-03  8.4268875809816570e-04  1.4508774973010393e-02  4.6343024372968757e-03  1.0343771163377825e-02  2.9488684369872547e-02  2.8728442074581109e-02  1.8663244745932912e-02  1.8110884217516336e-02  2.4137184716047128e-03  3.0413276127819487e-02  2.8959007614067578e-03  3.2437560842121904e-02  2.9578307124039107e-02  1.9675352928681139e-02  9.8816213870911995e-03  5.2989327496131182e-03  1.0650561990878202e-02  7.3638095026828092e-03  1.6184861399251374e-03  2.3024719012112182e-02  1.1996203880682009e-02  2.8396843093693905e-02  3.1283614170908393e-02  2.5080905619091771e-02  3.8328412716986358e-03  3.5862740869365044e-03  1.5999878466637245e-02  2.8229175754521624e-02  2.7750557137403507e-02  2.8448302425649760e-02  1.2755403253223125e-02  1.7622056045339670e-02  8.3294099560655293e-04  1.8972474065053129e-02  2.1205357690803318e-02  7.5201197144613742e-03  1.0234291268952830e-02  2.2401832758611431e-02  3.6667623652167714e-03  2.3837450690878691e-02  1.3090688697472184e-02  1.2999589021547148e-02  2.3918092979406346e-02  4.3539399665474829e-03  2.6163498094004433e-02  1.3538970830942286e-02  1.6544212917158796e-02  2.5886658899516413e-02  1.6978973915855622e-03  3.0450633747685766e-03  1.3332216598418217e-03  2.3018858905152526e-02  2.3143139418365977e-02  2.7447262640933091e-02  3.5047822030729800e-02  5.9552243729803387e-03  4.4257461072007998e-03  1.6143453510227487e-02  2.7772551219389190e-02  1.7978757403629211e-02  3.0643599244948003e-02  1.8062981555401973e-02  1.1465835281800264e-02  2.0781988352471172e-02  1.9474219838290754e-02  2.4256938792933499e-02  9.1968690627592449e-04  1.5160367436918050e-02  2.8049008336167992e-03  1.3954833084395464e-02  2.4908720395879956e-02  3.3719599232021072e-02  1.6533180262484026e-02  4.1542985206803294e-03  2.1381925845439052e-02  2.3369328874636905e-03  1.2249298371444704e-02  2.7254098575860843e-02  2.9038925836841676e-02  8.0260135318960149e-04  3.6810967407867014e-04  1.2114661021268685e-02  1.8603735147126290e-02  1.1089133633276174e-02  1.1835635338426844e-02  1.6094271815387692e-02  5.4707617928160517e-03  2.2616307037042687e-02  2.5192096028954222e-02  3.0536214956872951e-02  3.0000360628497987e-02  3.0619843839111226e-02  2.5541710003992531e-02  6.8097258489119980e-03  2.8146996114905069e-02  2.6694802698551415e-02  2.7202833440131718e-02  2.6928114178329129e-02  3.7697706745037853e-03  3.1475662932369908e-03  1.6482011728597708e-02  1.2543773200827949e-02  1.1459992396667427e-02  1.8713698756399874e-02  1.7196052710545619e-02  1.1673579911003523e-02  1.5868062596420061e-02  1.5843989445919238e-02  3.1128716787098436e-02  2.4505067186643897e-02  1.7556160423068425e-02  4.7421359860232255e-03  2.0732069490256994e-02  2.0034547872001596e-02  1.6724926206077181e-02  1.9719909255269882e-02  2.3163060229013273e-02  2.9938226089087399e-02  2.8883184425400860e-02  1.8304827907768419e-02  3.1233789089106987e-02  1.9249886766644755e-02  1.9186390530496721e-02  3.0280668301954677e-02  3.0031950561454423e-02  2.9989963518177707e-02  1.3940999728560092e-02  1.4032414307731769e-02  2.3707425588290417e-02  1.8884604798793801e-02  1.4818833448523153e-02  3.0868515029507847e-02  2.9783073877384460e-02  1.7256417559202625e-02  2.6699744334933814e-02  2.8971815525323557e-02  2.8992264530836170e-02  2.1626360203735786e-03  1.2204736692018303e-02  2.1921585259907284e-02  1.1751064191173424e-03  1.5002339086898618e-03  1.0498637679950842e-03  1.4490386650178015e-02  1.4146695097293943e-02  1.3915755959174846e-02  1.2154413326668088e-02  5.8754442536989651e-03  5.9268712338173867e-03  2.8785152552438478e-02  1.2340269857690317e-02  2.4776879225831057e-02  2.4209516351510585e-02  1.2797195589120127e-02  2.8309852152140378e-03  3.3698139562862040e-03  3.3412316145523114e-03  3.0003054485901620e-03  2.4046538903761398e-02  2.4583850938990588e-02  2.4487560569348095e-02  1.6525872795944779e-02  7.3459842611747284e-03  8.5797013732302526e-03  7.6058228771390055e-03  2.6568612340609074e-02  5.9269954088480578e-03  7.1421708565340735e-03  9.9076164241967794e-03  6.2579945006080483e-03  5.8161715705051624e-03  1.1123688706349621e-02  2.7568808555728026e-02  2.6258571758728488e-02  9.4625263968858911e-03  2.7178206404343770e-02  6.4791497521021583e-03  6.7000952754356488e-03  6.9210095796373768e-03  9.5760847210635807e-03  9.2432383176178686e-03  8.8938605545503657e-03  8.2655051335291645e-03  9.1565239161556043e-03  8.6953869048465634e-03  2.0338851409252472e-03  2.9235417224917460e-04  1.3314785584226317e-02  1.0349699489794681e-02  2.4637115267794590e-03  1.5678129290173981e-02  1.9942528623954944e-02  1.9353280353816300e-02  2.6343913215672053e-02  2.0022500663181970e-02  2.2314474829426643e-02  2.3263369352852881e-02  1.7668714690976108e-02  2.7026655535951922e-02  2.5687844502737509e-02  2.1902191415192557e-03  5.4854272513336589e-03  2.1527660436718124e-02  2.1191423326910822e-02  1.8745962426318031e-02  9.4313000958338024e-04  5.9658382233690758e-04  2.5122743660070039e-04  1.4033136181634702e-02  2.6018300289559457e-02  1.5183738390961272e-02  1.5660310409500350e-02  1.5546388100443460e-02  3.1632857963060711e-03  1.7823136212263616e-02  1.4841979154317682e-02  1.5748877660165410e-02  1.3347189136396711e-02  2.3606815492333594e-04  1.9687698495531605e-02  2.0071694548853450e-02  2.0289625378448653e-02  3.1572864301642078e-02  2.9015300179605106e-02  1.0348367606636167e-02  1.0008343978961090e-02  2.4936522299951053e-03  2.4264541581682637e-02  1.7945091922870991e-02  2.3974772472063113e-02  1.6145724758028915e-03  3.0606247553181511e-02  2.2723052613572898e-02  2.1403371137733142e-02  1.2678102021292633e-02  3.0453321141655606e-02  1.4644199056523781e-02  1.4451180058373755e-02  1.4226482814077993e-02  2.6605340189553631e-02  2.5810823927802519e-02  3.0703284749963446e-02  2.3317316210561448e-02  2.5526720651314869e-02  1.9629893620915006e-02  1.3322309976857197e-02  2.8303641115463773e-03  1.1364927536084198e-02  1.3662133206013285e-03  2.3366504114089599e-02  3.0103314816782110e-02  3.0793393305607292e-02  2.9315095181903946e-02  7.3632524184599488e-03  3.0978931815707392e-02  2.9851707301580929e-02  2.8942997437871595e-02  2.8746395912958685e-02  3.1572249716900980e-02  2.9035734526190644e-02  3.1360238155500826e-02  2.2055308640148288e-02  5.4360025987974332e-03  2.4908734134429268e-02  4.4125829140333247e-03  3.1485549455751931e-02  2.3986121012001933e-02  2.3698056723270414e-02  1.5216917852467888e-02  2.1856963477536611e-02  2.1805470595703938e-02  2.1396625333323274e-02  3.4905380472142187e-03  1.8684317666085935e-03  2.3339995657503863e-02  3.3727109520526223e-04  6.7567855678311698e-04  7.6387346811124929e-04  1.6091229202094749e-02  1.6088084084810082e-02  3.2394156456383681e-02  1.7351803682325247e-02  2.6747239028004410e-02  1.5841647376297185e-02  2.4858794300504843e-02  2.5378544122817523e-02  3.9293974613655467e-03  3.7156964263102424e-03  3.1330136305145057e-02  2.0375622447734509e-02  2.5963634093752047e-02  1.3743312483744588e-02  1.1580330359887822e-02  1.2033211450328216e-02  1.0320864217468280e-03  9.9403529877458534e-03  1.5110070689075638e-02  1.5208599585753444e-02  1.2671802565988741e-02  1.4989022197558763e-03  1.9743972498810162e-02  2.7226726702666477e-02  2.3647734248540848e-02  1.9188496852081970e-02  1.7862473866601950e-02  1.8275925960288531e-02  2.8513136933289301e-02  2.8712912036337919e-02  2.9274842209036023e-02  1.1198676090921730e-02  1.082