<?xml version="1.0"?>
<VTKFile type="UnstructuredGrid"  version="0.1"  >
<UnstructuredGrid>
<Piece  NumberOfPoints="1079" NumberOfCells="1944">
<Points>
<DataArray  type="Float64"  NumberOfComponents="3"  format="ascii">0.08500000000000001 0.02 0  0.005 0.02 0  0.005 0.03 0  0 0.03 0  0 0 0  0.005 0 0  0.005 0.01 0  0.08500000000000001 0.01 0  0 0.015 0  0 0.0075 0  0 0.0225 0  0.04500000000000001 0.02 0  0.04500000000000001 0.01 0  0.025 0.01 0  0.025 0.02 0  0.065 0.02 0  0.065 0.01 0  0.035 0.02 0  0.035 0.01 0  0.07500000000000001 0.02 0  0.07500000000000001 0.01 0  0.015 0.02 0  0.015 0.01 0  0.05500000000000001 0.01 0  0.05500000000000001 0.02 0  0.07000000000000001 0.01 0  0.07000000000000001 0.02 0  0.05 0.01 0  0.03 0.01 0  0.03 0.02 0  0.04000000000000001 0.01 0  0.01 0.01 0  0.02 0.02 0  0.06 0.015 0  0.08500000000000001 0.015 0  0.05 0.02 0  0.07250000000000001 0.015 0  0.04000000000000001 0.02 0  0.03750000000000001 0.015 0  0.0525 0.015 0  0.02 0.01 0  0.01 0.02 0  0.0275 0.015 0  0.0125 0.015 0  0.08000000000000002 0.01 0  0.08000000000000002 0.02 0  0.0325 0.014375 0  0.04291666666666667 0.015 0  0.065 0.015 0  0.005 0.005 0  0.005 0.015 0  0.02208333333333334 0.015 0  0.07791666666666668 0.015 0  0.005 0.025 0  0.06 0.01 0  0.06 0.02 0  0.01729166666666667 0.01572916666666667 0  0.04770833333333334 0.01427083333333334 0  0.06875000000000001 0.01625 0  0.008750000000000001 0.01625 0  0.05625000000000001 0.01625 0  0 0.00375 0  0 0.01875 0  0 0.01125 0  0 0.02625 0  0.08145833333333334 0.01354166666666667 0  0.0675 0.01 0  0.0075 0.0125 0  0.0625 0.0175 0  0.0575 0.0125 0  0.0625 0.0125 0  0.08207465277777778 0.01707465277777778 0  0.06767857142857144 0.01321428571428571 0  0.0175 0.01 0  0.01875 0.01291382575757576 0  0.0475 0.02 0  0.04564168086314595 0.01679860519591141 0  0.00296875 0.0125 0  0.0025 0.03 0  0.0025 0 0  0.00296875 0.0175 0  0.01521990740740741 0.0132349537037037 0  0.0497800925925926 0.0167650462962963 0  0.0325 0.02 0  0.03474264705882353 0.01674632352941176 0  0.03750000000000001 0.02 0  0.03025735294117647 0.01674632352941176 0  0.0275 0.02 0  0.0525 0.02 0  0.0125 0.01 0  0.04020833333333334 0.01322916666666667 0  0.03750000000000001 0.01 0  0.0225 0.02 0  0.02479166666666667 0.01677083333333333 0  0.07520833333333335 0.01322916666666667 0  0.07250000000000001 0.01 0  0.07520833333333335 0.01677083333333334 0  0.07250000000000001 0.02 0  0.04020833333333334 0.01677083333333333 0  0.0225 0.01 0  0.02375 0.01262152777777778 0  0.04250000000000001 0.02 0  0.04250000000000001 0.01 0  0.07750000000000001 0.01 0  0.07750000000000001 0.02 0  0.05036151960784314 0.01294424019607843 0  0.0705560064935065 0.01284699675324675 0  0.05458333333333334 0.01291666666666666 0  0.0021875 0.024375 0  0.005 0.0275 0  0.01125 0.0175 0  0.01463848039215686 0.01705575980392157 0  0.01 0.01375 0  0.03625 0.0125 0  0.0021875 0.009375 0  0.05375000000000001 0.0175 0  0.07125000000000001 0.0175 0  0.005 0.0025 0  0.0021875 0.005625 0  0.02655220103578155 0.01234889948210923 0  0.002187499999999999 0.020625 0  0.02979166666666667 0.01302083333333333 0  0.0525 0.01 0  0.07895833333333334 0.0125 0  0.01994277885235332 0.01704213007736944 0  0.07934656179076068 0.01733823814273861 0  0.04505722114764669 0.01295786992263056 0  0.06625 0.0175 0  0.006250000000000001 0.0175 0  0.05750000000000001 0.02 0  0.05875000000000001 0.0175 0  0.005 0.0225 0  0.005 0.0075 0  0.002375 0.027375 0  0.002375 0.002625000000000001 0  0.0475 0.01 0  0.0175 0.02 0  0.0325 0.01 0  0.03375 0.0121875 0  0.04261299435028249 0.01749205508474576 0  0.08500000000000001 0.0125 0  0.08250000000000002 0.01 0  0.02121963399965531 0.01224824108143494 0  0.0675 0.02 0  0.0125 0.02 0  0.02720152243589744 0.0175 0  0.03715165441176471 0.0175 0  0.08500000000000001 0.0175 0  0.0275 0.01 0  0.0025 0.0149560546875 0  0.0075 0.01 0  0.0075 0.02 0  0.06526785714285716 0.0125 0  0.01281031447005516 0.0125 0  0.0625 0.015 0  0.06 0.0125 0  0.05750000000000001 0.01 0  0.0625 0.02 0  0.0625 0.01 0  0.08250000000000002 0.02 0  0.04260103740101855 0.01252623201412851 0  0.02240052247582197 0.01750164767101344 0  0.07293583459427785 0.01238479732953041 0  0.005234374999999999 0.012265625 0  0.03528131980640358 0.01454684009679821 0  0.0325 0.01760027210036557 0  0.02532593822924343 0.01428227733767297 0  0.08009952069819683 0.01527145502895417 0  0.01987282359856536 0.01482587683689801 0  0.04828232595121382 0.01210233572595705 0  0.01671767404878618 0.01789766427404295 0  0.05125 0.01829007549029352 0  0.05247215456215357 0.01288882122882024 0  0.07338729919678716 0.01799385040160642 0  0.03838729919678716 0.01200614959839357 0  0.07717482110586968 0.01780301674207099 0  0.04771860040890012 0.01773306039388322 0  0.03125 0.01160380747126437 0  0.06875000000000001 0.01154265873015873 0  0.07625000000000001 0.01154065860215054 0  0.01625 0.01153997817696946 0  0.068125 0.018125 0  0.05437500000000001 0.015625 0  0.066875 0.015625 0  0.07039794950204951 0.01494384850614853 0  0.05687500000000001 0.018125 0  0.006875 0.015625 0  0.008749999999999999 0.01833333333333333 0  0.010625 0.015625 0  0.05625 0.01416666666666667 0  0.05812500000000001 0.015625 0  0.0449088595298192 0.01494528408816316 0  0 0.016875 0  0 0.013125 0  0.04962452342047931 0.01478673066448802 0  0.0153754765795207 0.01521326933551198 0  0.0771774565913315 0.01322498191305479 0  0.01857756431135545 0.01840228599899994 0  0.04642243568864456 0.01159771400100006 0  0.08125000000000002 0.01155637254901961 0  0.08317650804863432 0.0118234919513657 0  0.08288217288011697 0.01511353252923977 0  0.02837253504384828 0.0117177464035174 0  0.03896057962520807 0.01831163685754031 0  0.01125 0.0114244162490927 0  0.00935910490099115 0.0119067901980177 0  0.02946078431372549 0.01495404411764706 0  0.02875 0.0185829434466942 0  0.002968749999999999 0.0225 0  0.064375 0.016875 0  0.00296875 0.0075 0  0 0.001875 0  0 0.005625 0  0 0.009375 0  0 0.020625 0  0 0.024375 0  0 0.028125 0  0.06062500000000001 0.01812500000000001 0  0.008303571428571429 0.01446428571428572 0  0.01375 0.01865917058160413 0  0.05137790313978056 0.01143372888932909 0  0.04125000000000001 0.01131513063942604 0  0.04101690263896279 0.01844430285842771 0  0.02399563533148224 0.01844349395710867 0  0.08125000000000002 0.01868815426145731 0  0.05354684380692146 0.01145463537600848 0  0.01699195823639423 0.01315138909884649 0  0.07598357371794873 0.015 0  0.04098357371794872 0.015 0  0.003744047619047619 0.00375 0  0.003344630281690141 0.02580853873239437 0  0.04625 0.0187354532243972 0  0.06388392857142858 0.01138392857142858 0  0.06375 0.01375 0  0.05875 0.01375 0  0.06375 0.02 0  0.00622802734375 0.01372802734375 0  0.003630681818181818 0.001369318181818182 0  0.003630681818181818 0.02863068181818182 0  0.06125 0.01625 0  0.06125 0.01125 0  0.05625000000000001 0.01 0  0.05875 0.01125 0  0.06125 0.01375 0  0.08337864763241221 0.0183786476324122 0  0.05213634138653413 0.01674432930673294 0  0.04375000000000001 0.01 0  0.07424178685897437 0.01529258578431373 0  0.03924178685897436 0.01529258578431372 0  0.03410139294454583 0.01843406022904556 0  0.03089860705545417 0.01843406022904556 0  0.02094160484316717 0.01850229584291991 0  0.04375000000000001 0.02 0  0.04437042160883325 0.01820701498672512 0  0.04816311705429156 0.01600061344661149 0  0.07151224904251052 0.0114127410511319 0  0.04395528506193162 0.01639387970349481 0  0.0128750358694518 0.0167500179347259 0  0.02855808448399799 0.01642839899839741 0  0.02812690373330794 0.01340955081400569 0  0.08358500641945087 0.01351822349116885 0  0.05590277777777778 0.01173611111111111 0  0.06683110430364615 0.01164926404662283 0  0.02573206694914602 0.01842532451809762 0  0.01438126661842046 0.01166701193099454 0  0.02384283211216029 0.01526549696571563 0  0.03625 0.02 0  0.004609375000000001 0.0182421875 0  0.003398437500000001 0.01943359375 0  0.001728307845744682 0.01894718251329787 0  0.004377805359085963 0.01656966216675735 0  0.04649673309852075 0.0153889662370871 0  0.03615513600614297 0.01592654988586041 0  0.03316985071935832 0.01598763605018279 0  0.03110111603888768 0.01529816275177977 0  0.01370614113484869 0.0138804542047638 0  0.04930041102671841 0.01842260568883502 0  0.07875000000000001 0.02 0  0.0745395359848485 0.01165101111925709 0  0.03860755698543604 0.01373741558556884 0  0.02605038706571737 0.01573944002207753 0  0.07559826163500957 0.01841729376139847 0  0.04437500000000001 0.01149157931286774 0  0.06874116707361365 0.01454618473032123 0  0.003761917372881356 0.0239307468220339 0  0.003984374999999999 0.01125 0  0.003768503289473684 0.01392539576480263 0  0.001796875 0.0111328125 0  0.003761917372881356 0.008930746822033899 0  0.005 0.00625 0  0.003761917372881355 0.0210692531779661 0  0.06633928571428571 0.01410714285714285 0  0.006484375 0.01125 0  0.08364120589325512 0.01657288979763549 0  0.03576267476503373 0.0184116442851204 0  0.07370875846579374 0.0137848203678562 0  0.06964285714285715 0.01758928571428571 0  0.05520833333333334 0.01833333333333333 0  0.06491071428571429 0.01839285714285714 0  0.0510098951944636 0.01559941474766356 0  0.01786087179886325 0.0115702210443714 0  0.01972197383235524 0.01160576093166696 0  0.01804697593127788 0.01433503795474974 0  0.001644074528704677 0.01642892723865279 0  0.00125 0.03 0  0.001497685185185185 0.001267746913580247 0  0.07315451164202422 0.01643443118912983 0  0.001233906745910645 0.0140625 0  0.01162635071030191 0.01362229857939618 0  0.01528023503083844 0.01845923557506155 0  0.06625 0.02 0  0.07695012019230771 0.01624387078484555 0  0.03139091092855769 0.01320776147621796 0  0.03857339107781042 0.01675295051810485 0  0.001754993120977522 0.02590789105493891 0  0.002288757784711197 0.00412546923654445 0  0.07914382119690884 0.01404430049871201 0  0.001391810103286306 0.01257390899021902 0  0.0419501201923077 0.01614675005432421 0  0.001484375 0.007018229166666667 0  0.001484375 0.02201822916666666 0  0.048
[...]
<PointData  Scalars="pressure"> 
<DataArray  type="Float64"  Name="pressure"  format="ascii">-2.6968205712578329e-06  6.8717879333500033e-04  4.3917306693279335e-04  2.1448859408208795e-04  2.4873107567020846e-04  1.0076798072398560e-04  6.8357378557698056e-04  -2.5949998014837284e-06  6.8355632276878694e-04  7.1631617474585759e-04  7.2489194191217258e-04  3.3549884279356773e-04  3.3553090113913733e-04  5.0366081319726448e-04  5.0365685583102183e-04  1.6718301738123529e-04  1.6727434006791442e-04  4.1956345684268149e-04  4.1951448025605190e-04  8.2945774041066837e-05  8.3210822934482126e-05  5.8781043138503568e-04  5.8758608389296784e-04  2.5107795340956901e-04  2.5127248619181817e-04  1.2522242745595337e-04  1.2521903971079345e-04  2.9346558579704452e-04  4.6156868531093044e-04  4.6159158140615057e-04  3.7757030014318811e-04  6.2971275076829198e-04  5.4564989736037095e-04  2.0929731623273810e-04  -2.8027597468300721e-21  2.9336185630281334e-04  1.0413752043048322e-04  3.7770637905634686e-04  3.9851971830374093e-04  2.7236289010640455e-04  5.4563072191321298e-04  6.3042120922738719e-04  4.8258558286256800e-04  6.0863966322705543e-04  4.1017984687662345e-05  4.0690712526374157e-05  4.4055533780699134e-04  3.5296266061032411e-04  1.6722552654979035e-04  7.4057230685037475e-04  6.6792134468658714e-04  5.2811518047322513e-04  5.8582883975909591e-05  7.5278316210964714e-04  2.0924529275458747e-04  2.0908225474613177e-04  5.6838385692844584e-04  3.1265317484831993e-04  1.3568901551984627e-04  6.4008815663188772e-04  2.4084702109830521e-04  7.3831672451720538e-04  6.9541590462682398e-04  6.9187593138129804e-04  7.5022821193697191e-04  2.8895014065119736e-05  1.4617424529876950e-04  6.5043501848906769e-04  1.8824960093024071e-04  2.3032365878379257e-04  1.8825151171784980e-04  2.3697412403842247e-05  1.4469551612857965e-04  5.6662689423718829e-04  5.5612390138701315e-04  3.1409284398097861e-04  3.3003910732339926e-04  6.8181186706603350e-04  1.0223836025948774e-03  1.0069013335211228e-03  6.8368173816112988e-04  5.8577119099971595e-04  2.9521842361266158e-04  4.4040134349388496e-04  4.2170627532718232e-04  3.9840817976994106e-04  4.5941035951598024e-04  4.8252282889342394e-04  2.7237791035572448e-04  6.0870175042652150e-04  3.7574602885557195e-04  3.9860912870496890e-04  5.2455648293501264e-04  5.0535015184957925e-04  8.1356705524746262e-05  1.0414452205297379e-04  8.1346782748325998e-05  1.0386477792524139e-04  3.7575613159933292e-04  5.2463146149919770e-04  5.1411858862722437e-04  3.5644442547351252e-04  3.5663002515585340e-04  6.2498620742243248e-05  6.2157224591165999e-05  2.9034717673571091e-04  1.2050549171117098e-04  2.5484924049947767e-04  7.4225626150820360e-04  7.8770535911436334e-04  6.1928086133650835e-04  5.9072257685656210e-04  6.2950392462246194e-04  4.0900889602963665e-04  7.0174452469295978e-04  2.6186488361015634e-04  1.1465038981450435e-04  7.6876688268722327e-04  7.3180384133678751e-04  4.9056154934391837e-04  7.0741295757100983e-04  4.6331688860392636e-04  2.7219712660618849e-04  4.9767349063306688e-05  5.4610091540778581e-04  4.6526361099767229e-05  3.3495138316111335e-04  1.5671852680182780e-04  6.6175886698942549e-04  2.3056776683858871e-04  2.1983581804086030e-04  7.2459678308990486e-04  7.1627054275236603e-04  7.7989554146282213e-04  7.6196996621066891e-04  3.1441103241100970e-04  5.6628903298489171e-04  4.4055136698601120e-04  4.3006567528713300e-04  3.5552049924686147e-04  -8.0781313441444202e-08  2.0018342716394208e-05  5.3537998504018527e-04  1.4604406323539903e-04  6.0886252445386353e-04  4.8509561965412484e-04  4.0145914596988180e-04  -7.4090544503673556e-08  4.8232430723230070e-04  6.8000026635744201e-04  6.5126972235288118e-04  6.5217530306441347e-04  1.6496759507724699e-04  6.0599664794007912e-04  1.8825888310718003e-04  2.0929956613782814e-04  2.3031656593526333e-04  1.8813740273918657e-04  1.8788294511859065e-04  2.0103855684357135e-05  3.5562290779970058e-04  5.2544584840974646e-04  1.0047541885539362e-04  6.6919195415074742e-04  4.1717208044268598e-04  4.4055106511949678e-04  5.0086370699215692e-04  4.0277305383604947e-05  5.4669053594611015e-04  3.0782609132373409e-04  5.7321909796458645e-04  2.8286147068789754e-04  2.7259393497284628e-04  9.6649564508009134e-05  3.9105038953608600e-04  6.4810782635811814e-05  3.1252508695096977e-04  4.5104583599031719e-04  1.3569197029517007e-04  7.2592215503166255e-05  5.7711193848232478e-04  1.4094952851285405e-04  2.5660377784297097e-04  1.5145710215560374e-04  1.2182511221720175e-04  2.3563302932532576e-04  6.5493447344560252e-04  6.4073466001224788e-04  6.2438023127957699e-04  2.4083802068371893e-04  2.2507537373580341e-04  3.3620226044256955e-04  6.8683942351996396e-04  6.8529915174959759e-04  2.9653736482032194e-04  5.8449055521540654e-04  6.4790489103054032e-05  5.5755156887691084e-04  3.2346282653778375e-04  3.0428701034358518e-05  1.4223347110986912e-05  1.7204604508285368e-05  4.7523244133137766e-04  3.8625847767096192e-04  6.1910575590579467e-04  6.3496259620559345e-04  4.6610228982112248e-04  4.7206522146652765e-04  7.2457474657066962e-04  1.7247975385183408e-04  7.1648229815821183e-04  7.3619625365185467e-04  7.3006285228537657e-04  7.0311973299744008e-04  7.0880417899156121e-04  7.4003671880360671e-04  7.4266358159196812e-04  2.0403737218098534e-04  6.4343929255360633e-04  5.9825726651494492e-04  2.8178883344433329e-04  3.6699509631752043e-04  3.6896843537273440e-04  5.1202480647181004e-04  3.0388269270284341e-05  2.6357527668948843e-04  5.7089045024144624e-04  7.4833965084597693e-05  3.6922652854273899e-04  7.5362739799052843e-04  7.6124619364090641e-04  3.2490497509633044e-04  1.7660295075284404e-04  1.7773850075715686e-04  2.1981127335814717e-04  1.7758577883423700e-04  6.5975626482513573e-04  8.1588679307454824e-04  8.3202067905102498e-04  1.9877908518301882e-04  1.9876623951044965e-04  2.4092789944346027e-04  2.1980643978776677e-04  1.9877896110251397e-04  1.2341149901462168e-05  2.7541931954050858e-04  3.4576774101858040e-04  8.9482543305908653e-05  3.8387632776352716e-04  4.2708528430749135e-04  4.5404745230907887e-04  5.3771375175939746e-04  3.4584725179273796e-04  3.4074299410600319e-04  3.0881961321334040e-04  1.1246140832150407e-04  3.4422484910681721e-04  6.0555859766017880e-04  4.7369106736090032e-04  4.7731353528793403e-04  1.1369981159376416e-05  2.4374579722294694e-04  1.5180415006601169e-04  4.9746123948642281e-04  5.9278859427031505e-04  5.1332720925660439e-04  4.0924084332499990e-04  6.7748883708565900e-04  6.9349258223579666e-04  6.9542668781117593e-04  6.7372385702387438e-04  3.2284364017644973e-04  4.0983085735970035e-04  4.3492406345257718e-04  4.5231440584632144e-04  5.9849141672036323e-04  2.9923429114433867e-04  5.1513112692966266e-05  8.6976328936315606e-05  3.8920408310681682e-04  4.9477189945781777e-04  7.8052779115065206e-05  3.4069588355584987e-04  1.3576190801228816e-04  7.3978712493065143e-04  6.8205685427204959e-04  6.7512413762794944e-04  6.9111500544804638e-04  7.0284912334535917e-04  7.2792753101159804e-04  7.0893762406861599e-04  1.5595969573541281e-04  6.6037158568899056e-04  1.0897286836751744e-05  4.1316190302194460e-04  9.3969724226885610e-05  1.2818404345789060e-04  2.4959898534331656e-04  1.6796515116975218e-04  2.8488755324815649e-04  5.6359612194401313e-04  5.4795448436556124e-04  5.6203199924922574e-04  6.8445100172162781e-04  7.7628970712385621e-04  7.4266051733321437e-04  9.8624047538985060e-05  6.8310020799762494e-04  6.1593025417829494e-04  5.8532351556298229e-04  1.5687182407801657e-04  6.6702733617519095e-05  4.4987461631870409e-04  3.8950249587270207e-04  7.5498354834652908e-04  7.4410793631192831e-04  4.8271602484807004e-05  6.8585781140517114e-04  3.6109577013389668e-04  7.2026132794410442e-04  7.2034158368826189e-04  3.0215826700362094e-04  2.9570821136459867e-04  5.7888784632065878e-04  2.8123950258959458e-04  3.2187925863397129e-04  5.5916201673087871e-04  3.4483530472656987e-04  5.3805732966551417e-04  3.6109457805705389e-04  2.6383670744473348e-04  3.7875923217336956e-04  5.9690080901573703e-04  5.3667348357186798e-04  5.2563398082002845e-04  5.0304986372423709e-04  5.1415214683735969e-04  4.9322490396072150e-04  5.2365741338049093e-04  1.3268866883886670e-04  1.1275978922047127e-04  5.9630872345967919e-05  7.3279162717354031e-04  7.3369328517317793e-04  7.0953166098383516e-04  4.6321855834518860e-04  7.5874254882689633e-04  4.8937214675167794e-04  4.2034804983083680e-04  1.2088995753246920e-04  1.4620329430551721e-04  2.5135549039369097e-04  1.5145649265672063e-04  1.0735826088691194e-04  6.3160999552513736e-04  4.1865781995307691e-04  4.0877114577354790e-04  4.0173545944597141e-04  6.4922867106659656e-04  6.6351453132653022e-04  2.1105266673014151e-04  1.6197015143384633e-04  2.2508387246306124e-04  2.7065610760852483e-04  4.0634770293821744e-04  6.1928691538190475e-04  1.8300998579976626e-04  6.2705565293411439e-04  6.1060611595694628e-04  6.5499793252427410e-04  1.1321532801921612e-04  2.3034334651928257e-04  2.8432453703005136e-05  4.2901537938341849e-04  6.4005896494970075e-04  1.2412690536110028e-04  2.5250681977303206e-04  3.4897979647804902e-05  4.6246072866827919e-05  5.0318145407921843e-05  7.3603437980116187e-04  2.6187292489524418e-04  3.8003427592438462e-05  5.1148729175512280e-05  4.2725546352830668e-05  5.7700757674496931e-04  3.0388666875238925e-04  6.9035680507819361e-04  4.4573937791189943e-04  1.2436887280838879e-04  6.6430681057792393e-04  6.4012640772514366e-04  6.4557096360396804e-04  5.1682640542930413e-04  5.5612790507711179e-04  5.0060624291347721e-04  2.4092172854079194e-04  1.7773975411352971e-04  1.3585305911493640e-04  1.9884818053031488e-04  5.1640447324582711e-04  3.1869728094828628e-04  6.2515283662436378e-04  3.9866447973436548e-04  7.4493235569773105e-04  7.4238924601841840e-04  7.8806151308676204e-04  9.3457348066452555e-05  5.7795724466657079e-04  4.5748065776559928e-04  6.9224572338121850e-04  6.3435724731170930e-04  3.5121600046631623e-04  5.3511923935602569e-04  6.7926131721502325e-04  3.9878039222328018e-07  5.4906018534445714e-06  1.9389822923871695e-04  2.1419511132676351e-04  9.3678525835331163e-05  3.8796226939815108e-04  1.3175824394619028e-04  4.3867713070845816e-04  4.3956089724672806e-04  4.3027053054842069e-04  5.4508625862493838e-04  5.5735041398990580e-04  2.3057597022314565e-04  4.8520615193382979e-04  3.5190057182536564e-04  4.0266943278705812e-04  3.9929826536127437e-04  5.2785463534472531e-04  9.6888758656333703e-05  6.0335939923297788e-04  4.8416630846526159e-04  4.9489550498175766e-04  4.8265595729765691e-04  4.1165649614674363e-04  6.1445633646050278e-04  1.6607773046296815e-04  1.6609717518945057e-04  1.5482792143790524e-04  6.9834506746849407e-04  2.6546338521009311e-04  6.8061533631886347e-04  5.3577878240273547e-04  5.2254184554426228e-04  1.1457173623453495e-04  7.2702774633616349e-05  3.0373060547203329e-04  4.9320528761332913e-04  1.1475144301622218e-04  4.2998325893420388e-04  1.8825795157055653e-04  1.5659346574304394e-04  1.7777227862821293e-04  2.6201404174090080e-04  3.0265000948806676e-05  5.1399346132474980e-04  2.8284449498436966e-04  3.6696269357170736e-04  3.8795336969860611e-04  3.0308228805721892e-05  7.2564609297640233e-05  1.3569617589981645e-04  2.8286542274421261e-04  3.6703562329721640e-04  7.3764392825970192e-04  -7.2733758799595594e-09  2.3032683584158043e-04  1.8827609155057406e-04  5.9824527413544608e-04  6.1910375013862382e-04  6.4084010561804615e-04  5.7711308914496667e-04  7.0491219102148523e-04  5.9793770381356037e-04  9.4998650920595680e-04  7.5460784846965382e-04  7.9326127335976057e-04  9.2335842271743104e-04  7.7983426339921702e-04  6.6208104274346233e-04  6.6822830856720498e-04  7.1151036143813024e-04  4.5485177793632450e-09  5.3518215920892755e-04  1.8825786329504596e-04  7.6913421290334761e-04  4.7202099187790026e-04  4.7218074633739238e-04  5.5608710892374397e-04  4.5096661815661234e-04  8.2087472458811377e-04  5.0164219886214843e-07  4.5125156396178201e-04  2.6016006141574239e-04  1.9877844079106479e-04  2.0929636840002154e-04  2.1980698344339255e-04  2.0930343390509898e-04  2.1976880066272732e-04  1.9878508849685960e-04  1.9921132046211439e-04  3.2517871804192547e-04  3.2488610924932099e-04  2.1987752847566375e-04  5.8075488556568331e-06  3.6638095573044148e-04  5.6698528484990889e-05  3.0914123772569468e-04  3.6605259836592209e-04  3.2734452891460686e-04  6.6871994662704500e-04  5.1325354959322171e-04  2.4433876926997642e-04  1.4601896220934224e-04  8.8395637437407569e-05  2.0042269776370953e-05  3.4504306058806132e-04  1.1021319348833356e-04  2.4599294482153324e-04  7.0150135147812470e-04  6.8320624280677144e-04  4.4384281699764153e-04  4.3070661976863571e-04  5.7404458889567060e-05  7.2287431389372826e-04  6.8871366236543640e-05  7.7142397741332164e-04  7.0365199446728046e-04  4.6791206629658396e-04  2.3500233676318288e-04  1.2601907359672179e-04  2.5328906511357943e-04  1.7512495674383864e-04  3.8492237668819355e-05  5.4756572102897738e-04  2.8529027197263517e-04  6.7531601798269706e-04  7.4433465873706276e-04  5.9646034115472322e-04  9.1153209403185126e-05  8.5289459997679246e-05  3.8050373566286697e-04  6.7123717080949490e-04  6.5989829646234492e-04  6.7644673034540517e-04  3.0334519467087589e-04  4.1908155831340990e-04  1.9810114301476085e-05  4.5119656925290535e-04  5.0429791387125440e-04  1.7884229175462493e-04  2.4338929935281461e-04  5.3275149239390964e-04  8.7203544230509506e-05  5.6689488388643884e-04  3.1131881539747105e-04  3.0915233805933252e-04  5.6881199070122777e-04  1.0354573226584408e-04  6.2220706099158467e-04  3.2197970678983989e-04  3.9344877081870359e-04  6.1561707024787311e-04  4.0380821689171500e-05  7.2418639028068088e-05  3.1707985337900261e-05  5.4742593087027858e-04  5.5038089435873350e-04  6.5272835486027505e-04  8.3637426271316814e-04  1.4162668036131929e-04  1.0525336431493227e-04  3.8391814698603962e-04  6.6046747493583630e-04  4.2756450381122501e-04  7.2818523769214159e-04  4.2956743453555809e-04  2.7267729265300803e-04  4.9422957336311447e-04  4.6312877774504630e-04  5.7687173708252984e-04  2.1873969878263272e-05  3.6053886115668062e-04  6.6707203492786718e-05  3.3186950368823521e-04  5.9236894090040687e-04  8.0292555196919975e-04  3.9318648122506675e-04  9.8797687918315312e-05  5.0849686055238260e-04  5.5578239005010955e-05  2.9130923396377399e-04  6.4812400021265100e-04  6.9039189301361732e-04  1.9088554377191093e-05  8.7549112879490468e-06  2.8810730451735378e-04  4.4242737098299266e-04  2.6371877289284632e-04  2.8147174267124394e-04  3.8274845302185687e-04  1.3010543422420915e-04  5.3785235826022705e-04  5.9911341059144330e-04  7.2574977315141055e-04  7.1307817619842219e-04  7.2859322762038156e-04  6.0741982353992028e-04  1.6194778036036450e-04  6.6943967209023923e-04  6.3487139005639567e-04  6.4696988457163009e-04  6.4041631348483714e-04  8.9653289794963922e-05  7.4856324270682154e-05  3.9196958873796895e-04  2.9831231675279962e-04  2.7253837298572039e-04  4.4504241190594488e-04  4.0895055960435856e-04  2.7761775919530305e-04  3.7736892239115423e-04  3.7679644435344688e-04  7.3846748579162484e-04  5.8277245563602767e-04  4.1140748022735178e-04  1.1277761873336928e-04  4.9304237191721096e-04  4.7645429517353705e-04  3.9774645544329374e-04  4.6897166197619841e-04  5.5085586452987678e-04  7.1226988828191869e-04  6.8672741613011175e-04  4.3531881431691698e-04  7.4230584494156633e-04  4.5779380790576915e-04  4.5628371636289672e-04  7.2052101891141270e-04  7.1454020765398466e-04  7.1286100005612586e-04  3.3154053110044191e-04  3.3371438820483442e-04  5.6380207583575117e-04  4.4910686570051795e-04  3.5241672428448231e-04  7.3458561861322776e-04  7.0796162097057065e-04  4.1038614477772930e-04  6.3493675313626647e-04  6.8911500209244603e-04  6.8962729854189157e-04  5.1433194802850324e-05  2.9024952767992294e-04  5.2133091402690361e-04  2.7948100399509606e-05  3.5680637224017338e-05  2.4970465273099325e-05  3.4460576266437328e-04  3.3643225630771762e-04  3.3094018025719632e-04  2.8905276226262957e-04  1.3972935752818775e-04  1.4095233356799925e-04  6.8458498244270154e-04  2.9347270384409767e-04  5.8923559070170166e-04  5.7574146238091009e-04  3.0433910444506847e-04  6.7327327338373097e-05  8.0141770265722208e-05  7.9461947055746288e-05  7.1354232428387390e-05  5.7186328789503847e-04  5.8464058650700473e-04  5.8235029007325842e-04  3.9301265210697447e-04  1.7470101564275259e-04  2.0404074721766822e-04  1.8088042641001962e-04  6.3185214983053060e-04  1.4095505515010606e-04  1.6985406758685264e-04  2.3562039001910615e-04  1.4882697177284062e-04  1.3831979951881368e-04  2.6454055602549009e-04  6.5565899794331668e-04  6.2448002916985746e-04  2.2503563396513573e-04  6.4634652752478070e-04  1.5408640841098342e-04  1.5934083583506414e-04  1.6459448277635896e-04  2.2773623688093086e-04  2.1982064897354127e-04  2.1151190880602260e-04  1.9656863679304578e-04  2.1775844223510726e-04  2.0679175486700197e-04  4.8371163646308732e-05  6.9532269615106173e-06  3.1664817191287092e-04  2.4613374479626616e-04  5.8593182680536991e-05  3.6737027599633088e-04  4.7426590715079299e-04  4.6025269078155286e-04  6.2648193578592273e-04  4.7616775038138051e-04  5.3067478795241812e-04  5.5324126431000650e-04  4.2019111987687063e-04  6.4270827731432122e-04  6.1088908383868435e-04  5.2089262334854024e-05  1.3045411805041678e-04  5.1196285085770084e-04  5.0396658826857286e-04  4.4580964756969825e-04  2.2431510506669492e-05  1.4192645804262493e-05  5.9750195222192357e-06  3.3373161684803964e-04  6.1876991469154497e-04  3.6109471033957135e-04  3.7242829803270442e-04  3.6971906614790016e-04  7.5230148549194548e-05  4.2386355439805558e-04  3.5296716421222648e-04  3.7453454911440693e-04  3.1741875002068876e-04  5.6153432476474238e-06  4.6820558537186401e-04  4.7733730859937613e-04  4.8252032751660147e-04  7.5161608839079065e-04  6.8986287335123309e-04  2.4610202345482163e-04  2.3801600521842231e-04  5.9305270947992574e-05  5.7704791104982577e-04  4.2676383647772252e-04  5.7015837285258547e-04  3.8399539955465007e-05  7.2607357282525287e-04  5.4039027173553562e-04  5.0900690965949790e-04  3.0150687632257174e-04  7.2370866462642615e-04  3.4826366913036605e-04  3.4367323957920339e-04  3.3832970665765899e-04  6.3270135821131375e-04  6.1381133502212020e-04  7.3066734294116923e-04  5.5452331441893253e-04  6.0707331025704799e-04  4.6683091097115485e-04  3.1682738955497405e-04  6.7312754461893129e-05  2.7027756305189382e-04  3.2492715626153395e-05  5.5569217992838772e-04  7.1621704361297521e-04  7.3269665174641933e-04  6.9692071190150678e-04  1.7511172845088450e-04  7.3596407743810040e-04  7.0956450414586599e-04  6.8816647571948413e-04  6.8357947653557068e-04  7.5022405463110071e-04  6.9063222235139592e-04  7.4604473317527241e-04  5.2451090250087260e-04  1.2927876200126577e-04  5.9237400809338773e-04  1.0494039353848553e-04  7.4941472946513901e-04  5.7042687495025891e-04  5.6357687550386676e-04  3.6188380669750699e-04  5.1979367574365109e-04  5.1856968930445930e-04  5.0884648965473719e-04  8.3012706195886989e-05  4.4436460193123008e-05  5.5506185057895778e-04  8.0217729335082807e-06  1.6070397464202420e-05  1.8170825162733133e-05  3.8267617326108108e-04  3.8260139833418220e-04  7.7137827654627348e-04  4.1265456829876480e-04  6.3608449724662829e-04  3.7674076687723367e-04  5.9118670377554029e-04  6.0355014785588260e-04  9.3449473020087772e-05  8.8367030998123450e-05  7.4469230737282124e-04  4.8456551370526274e-04  6.1745770704618361e-04  3.2683920601171685e-04  2.7540018003845303e-04  2.8617043221799456e-04  2.4546244751980878e-05  2.3639907062867287e-04  3.5934287207003816e-04  3.6168569333317390e-04  3.0135701299010783e-04  3.5648762749337847e-05  4.6954389368475305e-04  6.4751363278807937e-04  5.6238053510654969e-04  4.5633376005385943e-04  4.2479894990641329e-04  4.3463158452821955e-04  6.7822467890868649e-04  6.8295168031026862e-04  6.9596757988911343e-04  2.6632376370204676e-04  2.573