<?xml version="1.0"?>
<VTKFile type="UnstructuredGrid"  version="0.1"  >
<UnstructuredGrid>
<Piece  NumberOfPoints="1079" NumberOfCells="1944">
<Points>
<DataArray  type="Float64"  NumberOfComponents="3"  format="ascii">0.08500000000000001 0.02 0  0.005 0.02 0  0.005 0.03 0  0 0.03 0  0 0 0  0.005 0 0  0.005 0.01 0  0.08500000000000001 0.01 0  0 0.015 0  0 0.0075 0  0 0.0225 0  0.04500000000000001 0.02 0  0.04500000000000001 0.01 0  0.025 0.01 0  0.025 0.02 0  0.065 0.02 0  0.065 0.01 0  0.035 0.02 0  0.035 0.01 0  0.07500000000000001 0.02 0  0.07500000000000001 0.01 0  0.015 0.02 0  0.015 0.01 0  0.05500000000000001 0.01 0  0.05500000000000001 0.02 0  0.07000000000000001 0.01 0  0.07000000000000001 0.02 0  0.05 0.01 0  0.03 0.01 0  0.03 0.02 0  0.04000000000000001 0.01 0  0.01 0.01 0  0.02 0.02 0  0.06 0.015 0  0.08500000000000001 0.015 0  0.05 0.02 0  0.07250000000000001 0.015 0  0.04000000000000001 0.02 0  0.03750000000000001 0.015 0  0.0525 0.015 0  0.02 0.01 0  0.01 0.02 0  0.0275 0.015 0  0.0125 0.015 0  0.08000000000000002 0.01 0  0.08000000000000002 0.02 0  0.0325 0.014375 0  0.04291666666666667 0.015 0  0.065 0.015 0  0.005 0.005 0  0.005 0.015 0  0.02208333333333334 0.015 0  0.07791666666666668 0.015 0  0.005 0.025 0  0.06 0.01 0  0.06 0.02 0  0.01729166666666667 0.01572916666666667 0  0.04770833333333334 0.01427083333333334 0  0.06875000000000001 0.01625 0  0.008750000000000001 0.01625 0  0.05625000000000001 0.01625 0  0 0.00375 0  0 0.01875 0  0 0.01125 0  0 0.02625 0  0.08145833333333334 0.01354166666666667 0  0.0675 0.01 0  0.0075 0.0125 0  0.0625 0.0175 0  0.0575 0.0125 0  0.0625 0.0125 0  0.08207465277777778 0.01707465277777778 0  0.06767857142857144 0.01321428571428571 0  0.0175 0.01 0  0.01875 0.01291382575757576 0  0.0475 0.02 0  0.04564168086314595 0.01679860519591141 0  0.00296875 0.0125 0  0.0025 0.03 0  0.0025 0 0  0.00296875 0.0175 0  0.01521990740740741 0.0132349537037037 0  0.0497800925925926 0.0167650462962963 0  0.0325 0.02 0  0.03474264705882353 0.01674632352941176 0  0.03750000000000001 0.02 0  0.03025735294117647 0.01674632352941176 0  0.0275 0.02 0  0.0525 0.02 0  0.0125 0.01 0  0.04020833333333334 0.01322916666666667 0  0.03750000000000001 0.01 0  0.0225 0.02 0  0.02479166666666667 0.01677083333333333 0  0.07520833333333335 0.01322916666666667 0  0.07250000000000001 0.01 0  0.07520833333333335 0.01677083333333334 0  0.07250000000000001 0.02 0  0.04020833333333334 0.01677083333333333 0  0.0225 0.01 0  0.02375 0.01262152777777778 0  0.04250000000000001 0.02 0  0.04250000000000001 0.01 0  0.07750000000000001 0.01 0  0.07750000000000001 0.02 0  0.05036151960784314 0.01294424019607843 0  0.0705560064935065 0.01284699675324675 0  0.05458333333333334 0.01291666666666666 0  0.0021875 0.024375 0  0.005 0.0275 0  0.01125 0.0175 0  0.01463848039215686 0.01705575980392157 0  0.01 0.01375 0  0.03625 0.0125 0  0.0021875 0.009375 0  0.05375000000000001 0.0175 0  0.07125000000000001 0.0175 0  0.005 0.0025 0  0.0021875 0.005625 0  0.02655220103578155 0.01234889948210923 0  0.002187499999999999 0.020625 0  0.02979166666666667 0.01302083333333333 0  0.0525 0.01 0  0.07895833333333334 0.0125 0  0.01994277885235332 0.01704213007736944 0  0.07934656179076068 0.01733823814273861 0  0.04505722114764669 0.01295786992263056 0  0.06625 0.0175 0  0.006250000000000001 0.0175 0  0.05750000000000001 0.02 0  0.05875000000000001 0.0175 0  0.005 0.0225 0  0.005 0.0075 0  0.002375 0.027375 0  0.002375 0.002625000000000001 0  0.0475 0.01 0  0.0175 0.02 0  0.0325 0.01 0  0.03375 0.0121875 0  0.04261299435028249 0.01749205508474576 0  0.08500000000000001 0.0125 0  0.08250000000000002 0.01 0  0.02121963399965531 0.01224824108143494 0  0.0675 0.02 0  0.0125 0.02 0  0.02720152243589744 0.0175 0  0.03715165441176471 0.0175 0  0.08500000000000001 0.0175 0  0.0275 0.01 0  0.0025 0.0149560546875 0  0.0075 0.01 0  0.0075 0.02 0  0.06526785714285716 0.0125 0  0.01281031447005516 0.0125 0  0.0625 0.015 0  0.06 0.0125 0  0.05750000000000001 0.01 0  0.0625 0.02 0  0.0625 0.01 0  0.08250000000000002 0.02 0  0.04260103740101855 0.01252623201412851 0  0.02240052247582197 0.01750164767101344 0  0.07293583459427785 0.01238479732953041 0  0.005234374999999999 0.012265625 0  0.03528131980640358 0.01454684009679821 0  0.0325 0.01760027210036557 0  0.02532593822924343 0.01428227733767297 0  0.08009952069819683 0.01527145502895417 0  0.01987282359856536 0.01482587683689801 0  0.04828232595121382 0.01210233572595705 0  0.01671767404878618 0.01789766427404295 0  0.05125 0.01829007549029352 0  0.05247215456215357 0.01288882122882024 0  0.07338729919678716 0.01799385040160642 0  0.03838729919678716 0.01200614959839357 0  0.07717482110586968 0.01780301674207099 0  0.04771860040890012 0.01773306039388322 0  0.03125 0.01160380747126437 0  0.06875000000000001 0.01154265873015873 0  0.07625000000000001 0.01154065860215054 0  0.01625 0.01153997817696946 0  0.068125 0.018125 0  0.05437500000000001 0.015625 0  0.066875 0.015625 0  0.07039794950204951 0.01494384850614853 0  0.05687500000000001 0.018125 0  0.006875 0.015625 0  0.008749999999999999 0.01833333333333333 0  0.010625 0.015625 0  0.05625 0.01416666666666667 0  0.05812500000000001 0.015625 0  0.0449088595298192 0.01494528408816316 0  0 0.016875 0  0 0.013125 0  0.04962452342047931 0.01478673066448802 0  0.0153754765795207 0.01521326933551198 0  0.0771774565913315 0.01322498191305479 0  0.01857756431135545 0.01840228599899994 0  0.04642243568864456 0.01159771400100006 0  0.08125000000000002 0.01155637254901961 0  0.08317650804863432 0.0118234919513657 0  0.08288217288011697 0.01511353252923977 0  0.02837253504384828 0.0117177464035174 0  0.03896057962520807 0.01831163685754031 0  0.01125 0.0114244162490927 0  0.00935910490099115 0.0119067901980177 0  0.02946078431372549 0.01495404411764706 0  0.02875 0.0185829434466942 0  0.002968749999999999 0.0225 0  0.064375 0.016875 0  0.00296875 0.0075 0  0 0.001875 0  0 0.005625 0  0 0.009375 0  0 0.020625 0  0 0.024375 0  0 0.028125 0  0.06062500000000001 0.01812500000000001 0  0.008303571428571429 0.01446428571428572 0  0.01375 0.01865917058160413 0  0.05137790313978056 0.01143372888932909 0  0.04125000000000001 0.01131513063942604 0  0.04101690263896279 0.01844430285842771 0  0.02399563533148224 0.01844349395710867 0  0.08125000000000002 0.01868815426145731 0  0.05354684380692146 0.01145463537600848 0  0.01699195823639423 0.01315138909884649 0  0.07598357371794873 0.015 0  0.04098357371794872 0.015 0  0.003744047619047619 0.00375 0  0.003344630281690141 0.02580853873239437 0  0.04625 0.0187354532243972 0  0.06388392857142858 0.01138392857142858 0  0.06375 0.01375 0  0.05875 0.01375 0  0.06375 0.02 0  0.00622802734375 0.01372802734375 0  0.003630681818181818 0.001369318181818182 0  0.003630681818181818 0.02863068181818182 0  0.06125 0.01625 0  0.06125 0.01125 0  0.05625000000000001 0.01 0  0.05875 0.01125 0  0.06125 0.01375 0  0.08337864763241221 0.0183786476324122 0  0.05213634138653413 0.01674432930673294 0  0.04375000000000001 0.01 0  0.07424178685897437 0.01529258578431373 0  0.03924178685897436 0.01529258578431372 0  0.03410139294454583 0.01843406022904556 0  0.03089860705545417 0.01843406022904556 0  0.02094160484316717 0.01850229584291991 0  0.04375000000000001 0.02 0  0.04437042160883325 0.01820701498672512 0  0.04816311705429156 0.01600061344661149 0  0.07151224904251052 0.0114127410511319 0  0.04395528506193162 0.01639387970349481 0  0.0128750358694518 0.0167500179347259 0  0.02855808448399799 0.01642839899839741 0  0.02812690373330794 0.01340955081400569 0  0.08358500641945087 0.01351822349116885 0  0.05590277777777778 0.01173611111111111 0  0.06683110430364615 0.01164926404662283 0  0.02573206694914602 0.01842532451809762 0  0.01438126661842046 0.01166701193099454 0  0.02384283211216029 0.01526549696571563 0  0.03625 0.02 0  0.004609375000000001 0.0182421875 0  0.003398437500000001 0.01943359375 0  0.001728307845744682 0.01894718251329787 0  0.004377805359085963 0.01656966216675735 0  0.04649673309852075 0.0153889662370871 0  0.03615513600614297 0.01592654988586041 0  0.03316985071935832 0.01598763605018279 0  0.03110111603888768 0.01529816275177977 0  0.01370614113484869 0.0138804542047638 0  0.04930041102671841 0.01842260568883502 0  0.07875000000000001 0.02 0  0.0745395359848485 0.01165101111925709 0  0.03860755698543604 0.01373741558556884 0  0.02605038706571737 0.01573944002207753 0  0.07559826163500957 0.01841729376139847 0  0.04437500000000001 0.01149157931286774 0  0.06874116707361365 0.01454618473032123 0  0.003761917372881356 0.0239307468220339 0  0.003984374999999999 0.01125 0  0.003768503289473684 0.01392539576480263 0  0.001796875 0.0111328125 0  0.003761917372881356 0.008930746822033899 0  0.005 0.00625 0  0.003761917372881355 0.0210692531779661 0  0.06633928571428571 0.01410714285714285 0  0.006484375 0.01125 0  0.08364120589325512 0.01657288979763549 0  0.03576267476503373 0.0184116442851204 0  0.07370875846579374 0.0137848203678562 0  0.06964285714285715 0.01758928571428571 0  0.05520833333333334 0.01833333333333333 0  0.06491071428571429 0.01839285714285714 0  0.0510098951944636 0.01559941474766356 0  0.01786087179886325 0.0115702210443714 0  0.01972197383235524 0.01160576093166696 0  0.01804697593127788 0.01433503795474974 0  0.001644074528704677 0.01642892723865279 0  0.00125 0.03 0  0.001497685185185185 0.001267746913580247 0  0.07315451164202422 0.01643443118912983 0  0.001233906745910645 0.0140625 0  0.01162635071030191 0.01362229857939618 0  0.01528023503083844 0.01845923557506155 0  0.06625 0.02 0  0.07695012019230771 0.01624387078484555 0  0.03139091092855769 0.01320776147621796 0  0.03857339107781042 0.01675295051810485 0  0.001754993120977522 0.02590789105493891 0  0.002288757784711197 0.00412546923654445 0  0.07914382119690884 0.01404430049871201 0  0.001391810103286306 0.01257390899021902 0  0.0419501201923077 0.01614675005432421 0  0.001484375 0.007018229166666667 0  0.001484375 0.02201822916666666 0  0.048
[...]
<PointData  Scalars="pressure"> 
<DataArray  type="Float64"  Name="pressure"  format="ascii">-7.2945683122296577e-05  1.8593227705625756e-02  1.1860172391697980e-02  5.9445122893527621e-03  6.9200058084710175e-03  2.8327173184285615e-03  1.8501888062512451e-02  -7.0188668722002875e-05  1.8499040483085160e-02  1.9392920399181612e-02  1.9611146571014787e-02  9.0794381552649402e-03  9.0803012994534020e-03  1.3630340899508615e-02  1.3630229551470408e-02  4.5243732287197315e-03  4.5268375525673267e-03  1.1354446069485222e-02  1.1353112296575613e-02  2.2446883600132084e-03  2.2518618631572587e-03  1.5907569140471870e-02  1.5901645540469109e-02  6.7947787846914121e-03  6.8000476165699921e-03  3.3888046980100782e-03  3.3887071377604475e-03  7.9419016229416387e-03  1.2491212831507037e-02  1.2491835989628788e-02  1.0217995278109510e-02  1.7042002601247726e-02  1.4766658154807112e-02  5.6640895274301505e-03  -1.3453246784784345e-19  7.9390981780619145e-03  2.8181910389546375e-03  1.0221677488029379e-02  1.0784942417950139e-02  7.3708093291717488e-03  1.4766162658545877e-02  1.7060387407820371e-02  1.3059984318127773e-02  1.6471339179896773e-02  1.1100113279030178e-03  1.1011494195480025e-03  1.1922536298944653e-02  9.5520489657568621e-03  4.5255173570594130e-03  2.0049008571401732e-02  1.8075767870128507e-02  1.4292134308310700e-02  1.5853648227164801e-03  2.0358001361288226e-02  5.6626877062174617e-03  5.6582684597083549e-03  1.5381901635090676e-02  8.4611691876929473e-03  3.6720570260701381e-03  1.7322194875703450e-02  6.5179075209297905e-03  1.9999419682454962e-02  1.8816819409052138e-02  1.8727282692107487e-02  2.0299463272466192e-02  7.8193996222633382e-04  3.9558170744974025e-03  1.7603072814114076e-02  5.0944828551818125e-03  6.2331178246585461e-03  5.0945347435851262e-03  6.4128006228909525e-04  3.9157967732073229e-03  1.5334392665423640e-02  1.5050136659207927e-02  8.5001221058989569e-03  8.9316775669589822e-03  1.8453550549962897e-02  2.7359040690267834e-02  2.6965300527686243e-02  1.8500539682932152e-02  1.5852493525242869e-02  7.9893397601701072e-03  1.1918362188060123e-02  1.1412431400096238e-02  1.0781917829373796e-02  1.2432802098637109e-02  1.3058283571463151e-02  7.3712160992041595e-03  1.6473175327286316e-02  1.0168626734868050e-02  1.0787365366090750e-02  1.4195819784414473e-02  1.3676051743769662e-02  2.2016828866150140e-03  2.8183724950089709e-03  2.2014145451741945e-03  2.8108071415667533e-03  1.0168899756049324e-02  1.4197860159296204e-02  1.3913352861023789e-02  9.6462691467974100e-03  9.6512921263200348e-03  1.6913239402444296e-03  1.6820916358421655e-03  7.8575107555085861e-03  3.2611512219975227e-03  6.8968438996010470e-03  2.0078752548988246e-02  2.1283731400983733e-02  1.6759128299657065e-02  1.5986402027910730e-02  1.7036136757954127e-02  1.1068807212974740e-02  1.8996010559308798e-02  7.0867061703793442e-03  3.1026959115183998e-03  2.0805449164345329e-02  1.9814074060237843e-02  1.3275835430592194e-02  1.9139572420388603e-02  1.2538523242027087e-02  7.3663239699610751e-03  1.3467919270862155e-03  1.4778866621694092e-02  1.2590830773559843e-03  9.0646168038031501e-03  4.2411705731195144e-03  1.7907943848837697e-02  6.2397238990139058e-03  5.9492881097708205e-03  1.9601752173505363e-02  1.9390603818430874e-02  2.1089095311969796e-02  2.0633439588529378e-02  8.5087411332412429e-03  1.5325184071646257e-02  1.1922434601489321e-02  1.1638658749543118e-02  9.6212707649523232e-03  -2.1847845332500449e-06  5.4164556205375249e-04  1.4488746367233801e-02  3.9522913553713254e-03  1.6477199778955093e-02  1.3127911558195609e-02  1.0864490448884779e-02  -2.0039796629270453e-06  1.3052910945818985e-02  1.8402792726216734e-02  1.7625887079559956e-02  1.7648548367051778e-02  4.4644118497862732e-03  1.6399920790480100e-02  5.0947345552537363e-03  5.6641510481585658e-03  6.2329244405296491e-03  5.0914369712257114e-03  5.0845579849741014e-03  5.4396233853626439e-04  9.6240419974128397e-03  1.4219890602786882e-02  2.7190848858691641e-03  1.8111462024031046e-02  1.1289724063410767e-02  1.1922420153698290e-02  1.3554638590803466e-02  1.0899717648557481e-03  1.4794832736877542e-02  8.3305358018775245e-03  1.5512729620908867e-02  7.6549290746818679e-03  7.3770618118080148e-03  2.6155471862716701e-03  1.0582803191050795e-02  1.7539064754346577e-03  8.4577016063767402e-03  1.2206437823081246e-02  3.6721378879316178e-03  1.9644928261685055e-03  1.5618158372230509e-02  3.8144199934219305e-03  6.9443266710399309e-03  4.0987827419409839e-03  3.2968635070591938e-03  6.3768031885328147e-03  1.7724038982160753e-02  1.7339374293982655e-02  1.6897256405389589e-02  6.5176638445794462e-03  6.0910850937630620e-03  9.0984687416364330e-03  1.8586378991385356e-02  1.8547665799143478e-02  8.0250334810740426e-03  1.5817793982845000e-02  1.7533576881285904e-03  1.5088740289330254e-02  8.7537058344692494e-03  8.2343375721517906e-04  3.8488036752903291e-04  4.6557965778606713e-04  1.2860989802791175e-02  1.0453121389124751e-02  1.6754808612739730e-02  1.7184104304513434e-02  1.2613903430584916e-02  1.2775276115826103e-02  1.9601602821628483e-02  4.6677106284286505e-03  1.9396687177342307e-02  1.9933176778496316e-02  1.9768648151411990e-02  1.9033487738245577e-02  1.9177312034882488e-02  2.0020906445214186e-02  2.0091587862145741e-02  5.5217407906926952e-03  1.7413245119398402e-02  1.6190256651689484e-02  7.6258969766324443e-03  9.9318015421321019e-03  9.9852034131078481e-03  1.3856683904164824e-02  8.2233801664095049e-04  7.1329939282429953e-03  1.5449766468502879e-02  2.0251607507023152e-03  9.9921918601127771e-03  2.0401058224102642e-02  2.0585839765446257e-02  8.7927332680778347e-03  4.7792959300201098e-03  4.8100255970051917e-03  5.9486249421341099e-03  4.8058932006565620e-03  1.7855240651962884e-02  2.2070083672075805e-02  2.2460010449121014e-02  5.3794386247115033e-03  5.3790887598492926e-03  6.5200983392509236e-03  5.9484937662508995e-03  5.3794352626419933e-03  3.3394215490226885e-04  7.4535245758609514e-03  9.3573343295419564e-03  2.4215892847672974e-03  1.0388653913388500e-02  1.1558001927142882e-02  1.2287667072565031e-02  1.4551887403260980e-02  9.3594883396510009e-03  9.2213532086880112e-03  8.3574228775058334e-03  3.0434527796629981e-03  9.3155809299977008e-03  1.6387873080781733e-02  1.2819275279744084e-02  1.2917309387976023e-02  3.0768415468594311e-04  6.5963554129487541e-03  4.1081748053089437e-03  1.3462556685025434e-02  1.6042445275909499e-02  1.3891932816527760e-02  1.1075081835057248e-02  1.8332724696152932e-02  1.8764291867845256e-02  1.8816950719503608e-02  1.8231889460855476e-02  8.7369495577107152e-03  1.1091051398496107e-02  1.1770139117848643e-02  1.2240767265310789e-02  1.6196739910950098e-02  8.0980203262405511e-03  1.3940275157021957e-03  2.3537644430139935e-03  1.0532837062340596e-02  1.3389777492449646e-02  2.1122703129323891e-03  9.2200777998817200e-03  3.6740298034625483e-03  2.0010195406649368e-02  1.8460780387550675e-02  1.8271440455654365e-02  1.8706688943996349e-02  1.9025932955432950e-02  1.9706803883094353e-02  1.9180155764074339e-02  4.2206346634296454e-03  1.7872531967654350e-02  2.9489205689030079e-04  1.1181198130297353e-02  2.5430240393018166e-03  3.4689524740290976e-03  6.7547596001992852e-03  4.5455346620737616e-03  7.7097594126807898e-03  1.5252366731360729e-02  1.4829051473236383e-02  1.5210017653257222e-02  1.8522122839525930e-02  2.0969545325381755e-02  2.0154690100358891e-02  2.6689820286918300e-03  1.8487408653508904e-02  1.6668741181102124e-02  1.5840277071578722e-02  4.2453167736732234e-03  1.8051085585367188e-03  1.2174740621844784e-02  1.0540912813051530e-02  2.0424046846302918e-02  2.0149118936047570e-02  1.3063156398505900e-03  1.8563217160683647e-02  9.7721521106478408e-03  1.9500257571566058e-02  1.9488141884756994e-02  8.1771497145676376e-03  8.0025944813163063e-03  1.5666149202772327e-02  7.6110334487499076e-03  8.7108510555982087e-03  1.5132328923139593e-02  9.3321014917793436e-03  1.4561191873976691e-02  9.7721199239326588e-03  7.1400685532582780e-03  1.0250172409665482e-02  1.6153631887696938e-02  1.4523747998307794e-02  1.4224990080614210e-02  1.3613803743764077e-02  1.3914263036576311e-02  1.3347910100149483e-02  1.4171501197940310e-02  3.5908601964127797e-03  3.0515321450188672e-03  1.6137186719782698e-03  1.9824307593867437e-02  1.9863363198314894e-02  1.9208040083864748e-02  1.2535859147266215e-02  2.0554515422887151e-02  1.3243646901595294e-02  1.1375673613221194e-02  3.2715536036558805e-03  3.9566009666133131e-03  6.8022944901584160e-03  4.0987636745449451e-03  2.9053490850358514e-03  1.7092686075240164e-02  1.1329927083229645e-02  1.1062370897691338e-02  1.0871969376135158e-02  1.7569232018958825e-02  1.7954749776426721e-02  5.7115935522385874e-03  4.3832933929958797e-03  6.0913134003017563e-03  7.3246201800588433e-03  1.0996788120147987e-02  1.6759236497037526e-02  4.9526853078700004e-03  1.6969387929593273e-02  1.6524387967262903e-02  1.7724919794813724e-02  3.0638601337273069e-03  6.2336503203698638e-03  7.6942425823070776e-04  1.1610234710813870e-02  1.7321965817787107e-02  3.3591575218196619e-03  6.8334521439123780e-03  9.4439028989777400e-04  1.2514929021161772e-03  1.3617001098675822e-03  1.9932595728318837e-02  7.0869235656576832e-03  1.0284318556063056e-03  1.3841774030248681e-03  1.1562209756406003e-03  1.5615235688746497e-02  8.2239259279587307e-03  1.8680764627671414e-02  1.2062829610718745e-02  3.3657041894464045e-03  1.7977342240629503e-02  1.7324014343113679e-02  1.7471459671408687e-02  1.3986628361446896e-02  1.5050253028425173e-02  1.3547671773914737e-02  6.5199351869507909e-03  4.8100596215662544e-03  3.6764998845993154e-03  5.3813177515818107e-03  1.3975213386572738e-02  8.6247377182440375e-03  1.6918463298112484e-02  1.0788860259320568e-02  2.0168743770444149e-02  2.0109556624613670e-02  2.1296891525279860e-02  2.5291589684394785e-03  1.5641004708009082e-02  1.2380579727447796e-02  1.8737653464362240e-02  1.7167313467294276e-02  9.5047787624053699e-03  1.4481692336259762e-02  1.8381935766132725e-02  1.0792934875540472e-05  1.4847450243521217e-04  5.2473480154412279e-03  5.7966342001185382e-03  2.5351440233031008e-03  1.0499230130679523e-02  3.5656792221680010e-03  1.1871707367414365e-02  1.1895625286499708e-02  1.1644198607906149e-02  1.4751424691229484e-02  1.5083312154340901e-02  6.2399458206337374e-03  1.3130902194735143e-02  9.5233036407899353e-03  1.0897241212191057e-02  1.0806011907718877e-02  1.4285080491200926e-02  2.6220191410742982e-03  1.6328566296889592e-02  1.3102762431097570e-02  1.3393121896263670e-02  1.3061885923648790e-02  1.1140458100561896e-02  1.6628680942457424e-02  4.4944527521763467e-03  4.4949811645055814e-03  4.1900059280560176e-03  1.8903486228641821e-02  7.1840909200943737e-03  1.8420363966597495e-02  1.4499525100118413e-02  1.4141297720487236e-02  3.1005681594902536e-03  1.9674886218420387e-03  8.2197063335728415e-03  1.3347376295190536e-02  3.1054332058704690e-03  1.1636431553032971e-02  5.0947093401089586e-03  4.2377831012186638e-03  4.8109452199635418e-03  7.0907483210701861e-03  8.1901226651533219e-04  1.3909960313317477e-02  7.6544673426647081e-03  9.9309289318249682e-03  1.0498995239965697e-02  8.2017629685801705e-04  1.9637492642248051e-03  3.6722525463009329e-03  7.6550362629873771e-03  9.9329004778388671e-03  1.9952366081853745e-02  -1.9649862247826929e-07  6.2332020561863162e-03  5.0951978511713384e-03  1.6189928056571275e-02  1.6754774747479943e-02  1.7342170099253568e-02  1.5618193436481151e-02  1.9081840349643799e-02  1.6181819991326493e-02  2.5413400608295809e-02  2.0426232620976328e-02  2.1450621171365734e-02  2.4809193241355974e-02  2.1071410114371834e-02  1.7918742357517496e-02  1.8082321378769778e-02  1.9249224408015513e-02  1.2287189985057140e-07  1.4483374204854939e-02  5.0947068975493205e-03  2.0793975484589892e-02  1.2774078811094880e-02  1.2778404953139722e-02  1.5049108457231350e-02  1.2204291647764726e-02  2.2148798625454904e-02  1.3576636672635370e-05  1.2212000427575255e-02  7.0405673103063372e-03  5.3794212093991323e-03  5.6640639672741770e-03  5.9485091338877744e-03  5.6642572067748340e-03  5.9474753405389458e-03  5.3796010177960731e-03  5.3911341728381332e-03  8.8001406152337022e-03  8.7922239235371947e-03  5.9504084978955329e-03  1.5705673021119214e-04  9.9151836583027328e-03  1.5343682459652735e-03  8.3661279700340246e-03  9.9062966859091526e-03  8.8587554575519419e-03  1.8098154102141235e-02  1.3889941655319702e-02  6.6124032732267886e-03  3.9516125035246570e-03  2.3921731579812995e-03  5.4236424445131492e-04  9.3377239578259254e-03  2.9826142666742731e-03  6.6571696798200528e-03  1.8980629885189417e-02  1.8489330999612870e-02  1.2011500171569595e-02  1.1656004308776103e-02  1.5534701405424472e-03  1.9569947886456912e-02  1.8637965959327001e-03  2.0876513013935605e-02  1.9038490813481145e-02  1.2662880565201099e-02  6.3597349162125274e-03  3.4103632297633781e-03  6.8546188147280687e-03  4.7392967833234222e-03  1.0416628234425004e-03  1.4818504624433206e-02  7.7206583250116383e-03  1.8275878934807106e-02  2.0137224328746470e-02  1.6141802418671636e-02  2.4668017740688995e-03  2.3081135584809031e-03  1.0297382766877939e-02  1.8167125883651207e-02  1.7859492378462603e-02  1.8308130872316128e-02  8.2092714392417998e-03  1.1341399595933783e-02  5.3608733384195276e-04  1.2210515146743138e-02  1.3647576240597314e-02  4.8398968563053788e-03  6.5867090609595278e-03  1.4417611634553705e-02  2.3599145123917170e-03  1.5341581518921303e-02  8.4250579902598113e-03  8.3664272729256899e-03  1.5393475586916639e-02  2.8021756623047905e-03  1.6838557421403520e-02  8.7135684395545643e-03  1.0647710266028136e-02  1.6660327546037638e-02  1.0927717320300878e-03  1.9597957419811231e-03  8.5806722249759479e-04  1.4814729153278259e-02  1.4894709085341145e-02  1.7664694001315422e-02  2.2583786242424152e-02  3.8327458265596847e-03  2.8483891003334627e-03  1.0389786001506255e-02  1.7874075921265411e-02  1.1570969430684119e-02  1.9716629711847448e-02  1.1625174772365949e-02  7.3793183803819908e-03  1.3375100340147994e-02  1.2533432967182576e-02  1.5611567142980273e-02  5.9192507826512613e-04  9.7570817003276387e-03  1.8052295071317884e-03  8.9812127889169827e-03  1.6031017715847348e-02  2.1711261079167914e-02  1.0640610590666084e-02  2.6736858052151891e-03  1.3761212674411383e-02  1.5040503121649374e-03  7.8835472842030858e-03  1.7540277148753409e-02  1.8687315567005376e-02  5.1656068045001350e-04  2.3691861697319969e-04  7.7968955664377403e-03  1.1973198254075989e-02  7.1368771867687643e-03  7.6173183777175392e-03  1.0358132384870371e-02  3.5209507118302724e-03  1.4555648256179035e-02  1.6213445489575016e-02  1.9648620555224396e-02  1.9304420246039740e-02  1.9710422657870191e-02  1.6438379400278841e-02  4.3826919254352312e-03  1.8115693624482163e-02  1.7180771650523331e-02  1.7507892012519170e-02  1.7330894842445120e-02  2.4262101265867175e-03  2.0257656828589704e-03  1.0607678772043012e-02  8.0730685409519075e-03  7.3755582848499899e-03  1.2043969126739638e-02  1.1067228238494133e-02  7.5130205598175617e-03  1.0212547093763695e-02  1.0197054034048029e-02  2.0017148874371175e-02  1.5771258628621873e-02  1.1241876353939445e-02  3.0520146461248585e-03  1.3342972475537116e-02  1.2894055059487793e-02  1.0764015987027515e-02  1.2691556375295445e-02  1.4907541293412338e-02  1.9270678828754880e-02  1.8587442216305552e-02  1.1780823701604744e-02  2.0097260672600547e-02  1.2389054609712409e-02  1.2348188538807306e-02  1.9492072314544640e-02  1.9331385977444767e-02  1.9298010962447185e-02  8.9723098366481253e-03  9.0311421446676518e-03  1.5257892879518061e-02  1.2153963000867509e-02  9.5372744755736621e-03  1.9871194877198618e-02  1.9165052067944766e-02  1.1106078619071138e-02  1.7183465236842506e-02  1.8647094806371934e-02  1.8660499593887551e-02  1.3918746125934213e-03  7.8548682150556288e-03  1.4108533241945180e-02  7.5630916911084830e-04  9.6556298169846340e-04  6.7571242370109512e-04  9.3258894621540255e-03  9.1046930659471354e-03  8.9560630477857842e-03  7.8224806117220113e-03  3.7813998488155087e-03  3.8144973803308333e-03  1.8526110142471453e-02  7.9420959056893687e-03  1.5946185057173667e-02  1.5581023199420589e-02  8.2361688061820017e-03  1.8220151513623497e-03  2.1688026109544390e-03  2.1504063996592589e-03  1.9309900421988061e-03  1.5476110860142615e-02  1.5821912017521367e-02  1.5759937074915836e-02  1.0635907118451580e-02  4.7278243443586113e-03  5.5218328282591548e-03  4.8950543788554750e-03  1.7099386081094882e-02  3.8145750108047917e-03  4.5966525378619708e-03  6.3764635945817100e-03  4.0276051999464206e-03  3.7432529099648360e-03  7.1591165908034384e-03  1.7743294296167920e-02  1.6899857673576608e-02  6.0900097479686622e-03  1.7491688892274367e-02  4.1699387657681422e-03  4.3121371398604624e-03  4.4543150459527264e-03  6.1630948693184601e-03  5.9488783439305961e-03  5.7240222901856043e-03  5.3196188484107201e-03  5.8930697681908320e-03  5.5962851856036482e-03  1.3090104704725162e-03  1.8816212098511303e-04  8.5692844004932774e-03  6.6609832658233508e-03  1.5856433170205024e-03  1.0038472140773375e-02  1.2834832119462807e-02  1.2455597922284525e-02  1.6954524822135587e-02  1.2886301190973845e-02  1.4361396386008052e-02  1.4972098292775873e-02  1.1371428113445473e-02  1.7393834537522954e-02  1.6532373812790702e-02  1.4096278092469874e-03  3.5303884319638763e-03  1.3855007833425609e-02  1.3638608719359756e-02  1.2064733270607877e-02  6.0701310132247146e-04  3.8400446216719879e-04  1.6169188476200701e-04  9.0316073421437184e-03  1.6745257994459140e-02  9.7721235261657973e-03  1.0078840267438103e-02  1.0005521157240111e-02  2.0358825032464390e-03  1.1470812799927604e-02  9.5521708165314679e-03  1.0135841127269830e-02  8.5901387263754951e-03  1.5194378261394062e-04  1.2670825313253274e-02  1.2917958470616364e-02  1.3058219439011387e-02  2.0327098327758746e-02  1.8672409003883578e-02  6.6601256144811754e-03  6.4412924185534423e-03  1.6049133732559040e-03  1.5616416947180018e-02  1.1549302159958700e-02  1.5429939526551696e-02  1.0391477363898144e-03  1.9681092797769775e-02  1.4624342447383058e-02  1.3775015086534810e-02  8.1595213699459223e-03  1.9594621197541132e-02  9.4248817060659171e-03  9.3006552044801964e-03  9.1560434077707087e-03  1.7122797733140006e-02  1.6611499758140219e-02  1.9764954590412036e-02  1.5006809665842794e-02  1.6428825349866276e-02  1.2633622778687457e-02  8.5741297517456586e-03  1.8216173709993701e-03  7.3143752739400309e-03  8.7930168970827419e-04  1.5038458171934797e-02  1.9377126677241372e-02  1.9821899681494112e-02  1.8864686216123711e-02  4.7389384476008104e-03  1.9930622870352105e-02  1.9208948306920014e-02  1.8626090513252848e-02  1.8500384366145858e-02  2.0314029926093588e-02  1.8688205106032852e-02  2.0185499134537849e-02  1.4194594793110665e-02  3.4985795938608038e-03  1.6031070835178234e-02  2.8399180951218894e-03  2.0269754858349219e-02  1.5437230408148896e-02  1.5251840821463858e-02  9.7934778707213736e-03  1.4066939209293673e-02  1.4033804497303912e-02  1.3770673493857598e-02  2.2464987594222464e-03  1.2025266412496074e-03  1.5021398312851699e-02  2.1707368891864498e-04  4.3487702374984542e-04  4.9166818481155084e-04  1.0356174960776853e-02  1.0354151000481418e-02  2.0857839004831586e-02  1.1167468126694838e-02  1.7214202048682136e-02  1.0195546906646527e-02  1.5998933185756035e-02  1.6333466983261862e-02  2.5289444667184078e-03  2.3914056129886690e-03  2.0160147727977487e-02  1.3113566724450418e-02  1.6709961693753245e-02  8.8450801088810621e-03  7.4530064580507257e-03  7.7444766548468852e-03  6.6425679387295653e-04  6.3975340508078049e-03  9.7247126437251339e-03  9.7881214318599457e-03  8.1554665835065418e-03  9.6470389590965118e-04  1.2707042962759157e-02  1.7523039639333687e-02  1.5219457561721201e-02  1.2349543647729288e-02  1.1496128988632030e-02  1.1762223713663285e-02  1.8352069553913681e-02  1.8480411022220304e-02  1.8838819086878626e-02  7.2073766620099977e-03  6.964