<?xml version="1.0"?>
<VTKFile type="UnstructuredGrid"  version="0.1"  >
<UnstructuredGrid>
<Piece  NumberOfPoints="1079" NumberOfCells="1944">
<Points>
<DataArray  type="Float64"  NumberOfComponents="3"  format="ascii">0.08500000000000001 0.02 0  0.005 0.02 0  0.005 0.03 0  0 0.03 0  0 0 0  0.005 0 0  0.005 0.01 0  0.08500000000000001 0.01 0  0 0.015 0  0 0.0075 0  0 0.0225 0  0.04500000000000001 0.02 0  0.04500000000000001 0.01 0  0.025 0.01 0  0.025 0.02 0  0.065 0.02 0  0.065 0.01 0  0.035 0.02 0  0.035 0.01 0  0.07500000000000001 0.02 0  0.07500000000000001 0.01 0  0.015 0.02 0  0.015 0.01 0  0.05500000000000001 0.01 0  0.05500000000000001 0.02 0  0.07000000000000001 0.01 0  0.07000000000000001 0.02 0  0.05 0.01 0  0.03 0.01 0  0.03 0.02 0  0.04000000000000001 0.01 0  0.01 0.01 0  0.02 0.02 0  0.06 0.015 0  0.08500000000000001 0.015 0  0.05 0.02 0  0.07250000000000001 0.015 0  0.04000000000000001 0.02 0  0.03750000000000001 0.015 0  0.0525 0.015 0  0.02 0.01 0  0.01 0.02 0  0.0275 0.015 0  0.0125 0.015 0  0.08000000000000002 0.01 0  0.08000000000000002 0.02 0  0.0325 0.014375 0  0.04291666666666667 0.015 0  0.065 0.015 0  0.005 0.005 0  0.005 0.015 0  0.02208333333333334 0.015 0  0.07791666666666668 0.015 0  0.005 0.025 0  0.06 0.01 0  0.06 0.02 0  0.01729166666666667 0.01572916666666667 0  0.04770833333333334 0.01427083333333334 0  0.06875000000000001 0.01625 0  0.008750000000000001 0.01625 0  0.05625000000000001 0.01625 0  0 0.00375 0  0 0.01875 0  0 0.01125 0  0 0.02625 0  0.08145833333333334 0.01354166666666667 0  0.0675 0.01 0  0.0075 0.0125 0  0.0625 0.0175 0  0.0575 0.0125 0  0.0625 0.0125 0  0.08207465277777778 0.01707465277777778 0  0.06767857142857144 0.01321428571428571 0  0.0175 0.01 0  0.01875 0.01291382575757576 0  0.0475 0.02 0  0.04564168086314595 0.01679860519591141 0  0.00296875 0.0125 0  0.0025 0.03 0  0.0025 0 0  0.00296875 0.0175 0  0.01521990740740741 0.0132349537037037 0  0.0497800925925926 0.0167650462962963 0  0.0325 0.02 0  0.03474264705882353 0.01674632352941176 0  0.03750000000000001 0.02 0  0.03025735294117647 0.01674632352941176 0  0.0275 0.02 0  0.0525 0.02 0  0.0125 0.01 0  0.04020833333333334 0.01322916666666667 0  0.03750000000000001 0.01 0  0.0225 0.02 0  0.02479166666666667 0.01677083333333333 0  0.07520833333333335 0.01322916666666667 0  0.07250000000000001 0.01 0  0.07520833333333335 0.01677083333333334 0  0.07250000000000001 0.02 0  0.04020833333333334 0.01677083333333333 0  0.0225 0.01 0  0.02375 0.01262152777777778 0  0.04250000000000001 0.02 0  0.04250000000000001 0.01 0  0.07750000000000001 0.01 0  0.07750000000000001 0.02 0  0.05036151960784314 0.01294424019607843 0  0.0705560064935065 0.01284699675324675 0  0.05458333333333334 0.01291666666666666 0  0.0021875 0.024375 0  0.005 0.0275 0  0.01125 0.0175 0  0.01463848039215686 0.01705575980392157 0  0.01 0.01375 0  0.03625 0.0125 0  0.0021875 0.009375 0  0.05375000000000001 0.0175 0  0.07125000000000001 0.0175 0  0.005 0.0025 0  0.0021875 0.005625 0  0.02655220103578155 0.01234889948210923 0  0.002187499999999999 0.020625 0  0.02979166666666667 0.01302083333333333 0  0.0525 0.01 0  0.07895833333333334 0.0125 0  0.01994277885235332 0.01704213007736944 0  0.07934656179076068 0.01733823814273861 0  0.04505722114764669 0.01295786992263056 0  0.06625 0.0175 0  0.006250000000000001 0.0175 0  0.05750000000000001 0.02 0  0.05875000000000001 0.0175 0  0.005 0.0225 0  0.005 0.0075 0  0.002375 0.027375 0  0.002375 0.002625000000000001 0  0.0475 0.01 0  0.0175 0.02 0  0.0325 0.01 0  0.03375 0.0121875 0  0.04261299435028249 0.01749205508474576 0  0.08500000000000001 0.0125 0  0.08250000000000002 0.01 0  0.02121963399965531 0.01224824108143494 0  0.0675 0.02 0  0.0125 0.02 0  0.02720152243589744 0.0175 0  0.03715165441176471 0.0175 0  0.08500000000000001 0.0175 0  0.0275 0.01 0  0.0025 0.0149560546875 0  0.0075 0.01 0  0.0075 0.02 0  0.06526785714285716 0.0125 0  0.01281031447005516 0.0125 0  0.0625 0.015 0  0.06 0.0125 0  0.05750000000000001 0.01 0  0.0625 0.02 0  0.0625 0.01 0  0.08250000000000002 0.02 0  0.04260103740101855 0.01252623201412851 0  0.02240052247582197 0.01750164767101344 0  0.07293583459427785 0.01238479732953041 0  0.005234374999999999 0.012265625 0  0.03528131980640358 0.01454684009679821 0  0.0325 0.01760027210036557 0  0.02532593822924343 0.01428227733767297 0  0.08009952069819683 0.01527145502895417 0  0.01987282359856536 0.01482587683689801 0  0.04828232595121382 0.01210233572595705 0  0.01671767404878618 0.01789766427404295 0  0.05125 0.01829007549029352 0  0.05247215456215357 0.01288882122882024 0  0.07338729919678716 0.01799385040160642 0  0.03838729919678716 0.01200614959839357 0  0.07717482110586968 0.01780301674207099 0  0.04771860040890012 0.01773306039388322 0  0.03125 0.01160380747126437 0  0.06875000000000001 0.01154265873015873 0  0.07625000000000001 0.01154065860215054 0  0.01625 0.01153997817696946 0  0.068125 0.018125 0  0.05437500000000001 0.015625 0  0.066875 0.015625 0  0.07039794950204951 0.01494384850614853 0  0.05687500000000001 0.018125 0  0.006875 0.015625 0  0.008749999999999999 0.01833333333333333 0  0.010625 0.015625 0  0.05625 0.01416666666666667 0  0.05812500000000001 0.015625 0  0.0449088595298192 0.01494528408816316 0  0 0.016875 0  0 0.013125 0  0.04962452342047931 0.01478673066448802 0  0.0153754765795207 0.01521326933551198 0  0.0771774565913315 0.01322498191305479 0  0.01857756431135545 0.01840228599899994 0  0.04642243568864456 0.01159771400100006 0  0.08125000000000002 0.01155637254901961 0  0.08317650804863432 0.0118234919513657 0  0.08288217288011697 0.01511353252923977 0  0.02837253504384828 0.0117177464035174 0  0.03896057962520807 0.01831163685754031 0  0.01125 0.0114244162490927 0  0.00935910490099115 0.0119067901980177 0  0.02946078431372549 0.01495404411764706 0  0.02875 0.0185829434466942 0  0.002968749999999999 0.0225 0  0.064375 0.016875 0  0.00296875 0.0075 0  0 0.001875 0  0 0.005625 0  0 0.009375 0  0 0.020625 0  0 0.024375 0  0 0.028125 0  0.06062500000000001 0.01812500000000001 0  0.008303571428571429 0.01446428571428572 0  0.01375 0.01865917058160413 0  0.05137790313978056 0.01143372888932909 0  0.04125000000000001 0.01131513063942604 0  0.04101690263896279 0.01844430285842771 0  0.02399563533148224 0.01844349395710867 0  0.08125000000000002 0.01868815426145731 0  0.05354684380692146 0.01145463537600848 0  0.01699195823639423 0.01315138909884649 0  0.07598357371794873 0.015 0  0.04098357371794872 0.015 0  0.003744047619047619 0.00375 0  0.003344630281690141 0.02580853873239437 0  0.04625 0.0187354532243972 0  0.06388392857142858 0.01138392857142858 0  0.06375 0.01375 0  0.05875 0.01375 0  0.06375 0.02 0  0.00622802734375 0.01372802734375 0  0.003630681818181818 0.001369318181818182 0  0.003630681818181818 0.02863068181818182 0  0.06125 0.01625 0  0.06125 0.01125 0  0.05625000000000001 0.01 0  0.05875 0.01125 0  0.06125 0.01375 0  0.08337864763241221 0.0183786476324122 0  0.05213634138653413 0.01674432930673294 0  0.04375000000000001 0.01 0  0.07424178685897437 0.01529258578431373 0  0.03924178685897436 0.01529258578431372 0  0.03410139294454583 0.01843406022904556 0  0.03089860705545417 0.01843406022904556 0  0.02094160484316717 0.01850229584291991 0  0.04375000000000001 0.02 0  0.04437042160883325 0.01820701498672512 0  0.04816311705429156 0.01600061344661149 0  0.07151224904251052 0.0114127410511319 0  0.04395528506193162 0.01639387970349481 0  0.0128750358694518 0.0167500179347259 0  0.02855808448399799 0.01642839899839741 0  0.02812690373330794 0.01340955081400569 0  0.08358500641945087 0.01351822349116885 0  0.05590277777777778 0.01173611111111111 0  0.06683110430364615 0.01164926404662283 0  0.02573206694914602 0.01842532451809762 0  0.01438126661842046 0.01166701193099454 0  0.02384283211216029 0.01526549696571563 0  0.03625 0.02 0  0.004609375000000001 0.0182421875 0  0.003398437500000001 0.01943359375 0  0.001728307845744682 0.01894718251329787 0  0.004377805359085963 0.01656966216675735 0  0.04649673309852075 0.0153889662370871 0  0.03615513600614297 0.01592654988586041 0  0.03316985071935832 0.01598763605018279 0  0.03110111603888768 0.01529816275177977 0  0.01370614113484869 0.0138804542047638 0  0.04930041102671841 0.01842260568883502 0  0.07875000000000001 0.02 0  0.0745395359848485 0.01165101111925709 0  0.03860755698543604 0.01373741558556884 0  0.02605038706571737 0.01573944002207753 0  0.07559826163500957 0.01841729376139847 0  0.04437500000000001 0.01149157931286774 0  0.06874116707361365 0.01454618473032123 0  0.003761917372881356 0.0239307468220339 0  0.003984374999999999 0.01125 0  0.003768503289473684 0.01392539576480263 0  0.001796875 0.0111328125 0  0.003761917372881356 0.008930746822033899 0  0.005 0.00625 0  0.003761917372881355 0.0210692531779661 0  0.06633928571428571 0.01410714285714285 0  0.006484375 0.01125 0  0.08364120589325512 0.01657288979763549 0  0.03576267476503373 0.0184116442851204 0  0.07370875846579374 0.0137848203678562 0  0.06964285714285715 0.01758928571428571 0  0.05520833333333334 0.01833333333333333 0  0.06491071428571429 0.01839285714285714 0  0.0510098951944636 0.01559941474766356 0  0.01786087179886325 0.0115702210443714 0  0.01972197383235524 0.01160576093166696 0  0.01804697593127788 0.01433503795474974 0  0.001644074528704677 0.01642892723865279 0  0.00125 0.03 0  0.001497685185185185 0.001267746913580247 0  0.07315451164202422 0.01643443118912983 0  0.001233906745910645 0.0140625 0  0.01162635071030191 0.01362229857939618 0  0.01528023503083844 0.01845923557506155 0  0.06625 0.02 0  0.07695012019230771 0.01624387078484555 0  0.03139091092855769 0.01320776147621796 0  0.03857339107781042 0.01675295051810485 0  0.001754993120977522 0.02590789105493891 0  0.002288757784711197 0.00412546923654445 0  0.07914382119690884 0.01404430049871201 0  0.001391810103286306 0.01257390899021902 0  0.0419501201923077 0.01614675005432421 0  0.001484375 0.007018229166666667 0  0.001484375 0.02201822916666666 0  0.048
[...]
<PointData  Vectors="velocity"> 
<DataArray  type="Float64"  Name="velocity"  NumberOfComponents="3" format="ascii">3.6972874140199714e-06 2.7608257558737342e-20 0.0000000000000000e+00  7.4821265405214088e-20 -8.8425131842525744e-20 0.0000000000000000e+00  3.2104947524714475e-18 -1.7886495290574467e-04 0.0000000000000000e+00  -3.7223127564886361e-18 -1.7886495290574432e-04 0.0000000000000000e+00  -3.6809537258609886e-18 1.7886495290574442e-04 0.0000000000000000e+00  3.2880429348982996e-18 1.7886495290574426e-04 0.0000000000000000e+00  7.5371788685172252e-20 7.0317987365045558e-20 0.0000000000000000e+00  3.7971386959153562e-06 -2.8478105724883740e-20 0.0000000000000000e+00  8.0816775468824481e-21 -4.4196674084513388e-22 0.0000000000000000e+00  -9.8868474017334130e-22 6.8783527458519106e-20 0.0000000000000000e+00  4.3185125978941725e-22 -7.9936484397941433e-20 0.0000000000000000e+00  7.1634037278538560e-20 -2.5919557735561354e-22 0.0000000000000000e+00  6.1448976401500971e-20 3.6611755905171390e-22 0.0000000000000000e+00  7.2984449451728644e-20 2.0788213955163595e-22 0.0000000000000000e+00  5.7939059801729590e-20 -2.4435199541436874e-22 0.0000000000000000e+00  6.8125111144639555e-20 2.0040662518436597e-22 0.0000000000000000e+00  6.9057833581514926e-20 9.5490920061949771e-23 0.0000000000000000e+00  5.4464750895338505e-20 -1.2032824043915719e-22 0.0000000000000000e+00  7.8780244021122537e-20 -1.0745906203102427e-22 0.0000000000000000e+00  6.7063515752962045e-20 4.0164171680342396e-22 0.0000000000000000e+00  6.1031557273954214e-20 2.5564451692586384e-22 0.0000000000000000e+00  5.5677569358526019e-20 -1.6221166854127863e-22 0.0000000000000000e+00  5.7177723000600397e-20 -1.2008448771652415e-22 0.0000000000000000e+00  6.5966829995227228e-20 -7.8254559534796543e-22 0.0000000000000000e+00  6.3436182718594901e-20 2.8474204938153020e-22 0.0000000000000000e+00  6.2968397617752408e-20 9.9748325719365858e-23 0.0000000000000000e+00  7.3742823981141979e-20 -2.7207193401245514e-22 0.0000000000000000e+00  6.7438884641684728e-20 2.2801126508266427e-22 0.0000000000000000e+00  6.9365386260011660e-20 3.3912207769483175e-23 0.0000000000000000e+00  5.4038516460444364e-20 -1.3911809457847645e-22 0.0000000000000000e+00  6.4137842762036300e-20 2.2057988028268810e-22 0.0000000000000000e+00  6.9702179201457487e-20 3.6492297596249175e-22 0.0000000000000000e+00  6.0341723522907926e-20 -1.2903636692552046e-22 0.0000000000000000e+00  9.4297521421321856e-06 -1.3779641010370625e-09 0.0000000000000000e+00  9.0564554940486453e-06 1.3142374300140560e-23 0.0000000000000000e+00  5.9880931573140629e-20 3.7039567008674896e-23 0.0000000000000000e+00  9.4295779971981117e-06 3.1789960900352156e-09 0.0000000000000000e+00  6.9614320969378204e-20 -6.3465838573474019e-22 0.0000000000000000e+00  9.4217289686433308e-06 -4.5862316624586022e-09 0.0000000000000000e+00  9.4199293928040402e-06 -5.1343066080430958e-10 0.0000000000000000e+00  6.0464198910665238e-20 3.1723938906796753e-23 0.0000000000000000e+00  7.0884584724057483e-20 -1.3128209255602866e-21 0.0000000000000000e+00  9.4211445454537958e-06 -2.4229344907795290e-10 0.0000000000000000e+00  9.4014953955837133e-06 -3.6079550783540759e-08 0.0000000000000000e+00  5.8195076348211520e-20 -2.4809528503461050e-22 0.0000000000000000e+00  6.4982197038423448e-20 1.2209721864321647e-21 0.0000000000000000e+00  9.4189641960756799e-06 2.7685495460114998e-10 0.0000000000000000e+00  9.4285127845835602e-06 -9.1917341167526690e-10 0.0000000000000000e+00  9.4259690854111189e-06 -7.9327103353485784e-10 0.0000000000000000e+00  -5.0009197745655874e-21 8.6384047051202588e-20 0.0000000000000000e+00  7.1229997276520898e-06 -3.6755567968055962e-07 0.0000000000000000e+00  9.4174857641596162e-06 2.3215083260434417e-09 0.0000000000000000e+00  9.4150258221928240e-06 4.8471190853040487e-10 0.0000000000000000e+00  -7.6539786904830158e-21 -9.7104785538788524e-20 0.0000000000000000e+00  6.0099841380806471e-20 1.2432447866283259e-22 0.0000000000000000e+00  6.7067698250769444e-20 8.6083783313582537e-22 0.0000000000000000e+00  9.4219015411276774e-06 -3.2563196863232077e-09 0.0000000000000000e+00  9.4249298558958065e-06 2.4924998016738535e-09 0.0000000000000000e+00  9.4260407440180660e-06 -2.4044250028996082e-09 0.0000000000000000e+00  9.2805360792791520e-06 -2.9832542872916708e-07 0.0000000000000000e+00  9.4193391054909840e-06 -7.0869499564826912e-09 0.0000000000000000e+00  -4.1904236712627380e-20 1.4177408612623287e-20 0.0000000000000000e+00  3.9418784307385115e-21 -3.8689071784816465e-20 0.0000000000000000e+00  5.5796015905481400e-21 4.0461110888878129e-20 0.0000000000000000e+00  -5.0196104895715664e-20 1.1369203245610812e-20 0.0000000000000000e+00  9.3284684853161242e-06 -9.0133562051565782e-08 0.0000000000000000e+00  5.7737521031774760e-20 -1.7182513525358770e-22 0.0000000000000000e+00  9.2919785824785962e-06 5.3685621846746022e-07 0.0000000000000000e+00  9.4084836993794852e-06 2.6940824667571354e-10 0.0000000000000000e+00  9.4126940027465830e-06 7.9363207392319263e-10 0.0000000000000000e+00  9.4211254593951701e-06 -4.0461136983929280e-09 0.0000000000000000e+00  9.3182972644789857e-06 1.7234011346837159e-07 0.0000000000000000e+00  9.4200866169317731e-06 -1.9087581767998678e-09 0.0000000000000000e+00  6.1627383056535321e-20 -1.4016160901592033e-23 0.0000000000000000e+00  9.4125488264330413e-06 -1.1872788757504905e-10 0.0000000000000000e+00  7.6694736610140225e-20 1.1502070571414724e-21 0.0000000000000000e+00  9.4284988047324734e-06 -7.1820598828562131e-09 0.0000000000000000e+00  4.5081672987301281e-06 3.6826414270434292e-06 0.0000000000000000e+00  -2.0024116455775014e-19 -1.7886495290574524e-04 0.0000000000000000e+00  -3.1217697015608875e-19 1.7886495290574535e-04 0.0000000000000000e+00  4.6656034320923431e-06 -4.5834215325784886e-06 0.0000000000000000e+00  9.4089592280964694e-06 -1.3066504680100008e-08 0.0000000000000000e+00  9.4170501826207302e-06 8.4632228014503629e-09 0.0000000000000000e+00  6.3301808354406642e-20 5.5688943305529568e-22 0.0000000000000000e+00  9.4162426392763038e-06 -2.9057115443235433e-09 0.0000000000000000e+00  6.7763855732746443e-20 4.2724243580787640e-22 0.0000000000000000e+00  9.4180600674843374e-06 -2.9921869793742602e-09 0.0000000000000000e+00  7.5882774922168687e-20 1.3462752530445701e-22 0.0000000000000000e+00  6.4883200716228155e-20 -1.2574274840660580e-23 0.0000000000000000e+00  6.8996107207247464e-20 3.5003898236090682e-22 0.0000000000000000e+00  9.4211005025558186e-06 2.9151547469462366e-09 0.0000000000000000e+00  6.4200510415230802e-20 2.2012142510399966e-22 0.0000000000000000e+00  6.7840987321102532e-20 1.8243575930164112e-22 0.0000000000000000e+00  9.4151595482221821e-06 7.2711299519939901e-10 0.0000000000000000e+00  9.4243334724087408e-06 1.5020642984955696e-09 0.0000000000000000e+00  6.6827678494138877e-20 3.8564810558421016e-23 0.0000000000000000e+00  9.4225310784286947e-06 6.4649833322236396e-09 0.0000000000000000e+00  7.2465330135995804e-20 7.8017961363554077e-22 0.0000000000000000e+00  9.4268876090735459e-06 -1.1967844591195137e-08 0.0000000000000000e+00  5.7706606070043875e-20 2.0545768355830236e-23 0.0000000000000000e+00  9.4070351928040321e-06 6.3496291686309255e-09 0.0000000000000000e+00  6.7985045470219705e-20 -2.9344373908071348e-24 0.0000000000000000e+00  6.5084386322696401e-20 6.6510629065943773e-22 0.0000000000000000e+00  6.7185838539502925e-20 1.1560398669578190e-21 0.0000000000000000e+00  7.2618874457615886e-20 -4.4087480463847061e-22 0.0000000000000000e+00  9.4231169086978370e-06 7.1368671226913620e-09 0.0000000000000000e+00  9.4253222013215978e-06 1.1142638018664907e-08 0.0000000000000000e+00  9.4225721019926114e-06 1.1643666380667651e-09 0.0000000000000000e+00  -1.9590075999748557e-06 -1.0350501634501415e-05 0.0000000000000000e+00  1.3179579521300807e-20 -1.4360338869221570e-19 0.0000000000000000e+00  9.4557038848167440e-06 -7.9462444125431653e-08 0.0000000000000000e+00  9.4358846230282760e-06 -2.6145353200898295e-08 0.0000000000000000e+00  9.3112047475009525e-06 2.4062553800581559e-08 0.0000000000000000e+00  9.4001198249786016e-06 -1.0096561271335603e-08 0.0000000000000000e+00  1.5825109149886612e-06 8.4260830370894847e-06 0.0000000000000000e+00  9.4083101053909175e-06 -1.6043092342712284e-11 0.0000000000000000e+00  9.4283110286634637e-06 7.1348273818481101e-13 0.0000000000000000e+00  2.8203524843385302e-20 7.6628444857499696e-20 0.0000000000000000e+00  -1.7300172350046700e-06 8.9600220170386208e-06 0.0000000000000000e+00  9.4070060757512708e-06 -6.4506062117258075e-09 0.0000000000000000e+00  1.5748293289473212e-06 -9.6932009599012214e-06 0.0000000000000000e+00  9.4232218882064114e-06 -1.5630787779698741e-09 0.0000000000000000e+00  6.1613731351745913e-20 -5.2385424323499163e-22 0.0000000000000000e+00  9.4049408535015530e-06 -2.8737393739062237e-08 0.0000000000000000e+00  9.4139124649370769e-06 9.6045376106933477e-11 0.0000000000000000e+00  9.4098029104821437e-06 4.3445244939450238e-08 0.0000000000000000e+00  9.4255413618885793e-06 -2.0961164139587925e-09 0.0000000000000000e+00  9.4214724470297097e-06 -1.1130724273561723e-08 0.0000000000000000e+00  9.4032557349533804e-06 -1.7316024287576502e-06 0.0000000000000000e+00  6.8455901310607907e-20 -9.4405963091132429e-22 0.0000000000000000e+00  9.4043322432072470e-06 -3.3462697864629211e-09 0.0000000000000000e+00  7.6371461652970351e-22 -8.8240524273656397e-20 0.0000000000000000e+00  7.3915104023145329e-22 7.7100685522302584e-20 0.0000000000000000e+00  -2.1431430467940982e-05 -2.3631644136598963e-05 0.0000000000000000e+00  -1.7450205779956057e-05 1.9434470990136212e-05 0.0000000000000000e+00  6.3341915761708300e-20 2.1672644535256035e-23 0.0000000000000000e+00  7.4600904707093923e-20 1.0483367152555007e-21 0.0000000000000000e+00  6.1910704180106560e-20 1.3896332061159442e-22 0.0000000000000000e+00  9.4047820260255829e-06 1.1462927168200169e-08 0.0000000000000000e+00  9.4087133239356558e-06 6.9216198912490506e-09 0.0000000000000000e+00  8.5589958567896455e-06 -2.4795739009567644e-21 0.0000000000000000e+00  6.6825116155472956e-20 -2.1201670917647670e-21 0.0000000000000000e+00  9.4085658856483908e-06 2.6642003838203370e-09 0.0000000000000000e+00  6.5470944308780027e-20 4.6410914125518389e-22 0.0000000000000000e+00  6.3226863321249570e-20 -1.2726476992200207e-22 0.0000000000000000e+00  9.4177989137877470e-06 -1.1965924327298660e-09 0.0000000000000000e+00  9.4280326582442427e-06 1.0066998911873758e-09 0.0000000000000000e+00  8.5492240171671268e-06 2.9208477261537738e-21 0.0000000000000000e+00  6.6577828467804575e-20 -8.2248854431846110e-22 0.0000000000000000e+00  3.5037390685640196e-06 -3.3796080645669216e-07 0.0000000000000000e+00  6.5094113868923398e-20 2.2773351074723306e-21 0.0000000000000000e+00  8.3384980094063997e-20 -3.1845238412266465e-21 0.0000000000000000e+00  9.4182088882965580e-06 -4.2210767385296062e-09 0.0000000000000000e+00  9.3857068142052472e-06 -1.1056087751072371e-08 0.0000000000000000e+00  9.4306064038765076e-06 6.4513987911633711e-11 0.0000000000000000e+00  9.4128138424081622e-06 5.9342675063906812e-09 0.0000000000000000e+00  6.5729090907056764e-20 7.1916050825213572e-23 0.0000000000000000e+00  7.9591681828635282e-20 2.0909078101358118e-22 0.0000000000000000e+00  6.5502448839144475e-20 -1.2535205063751308e-21 0.0000000000000000e+00  6.2030328415091693e-20 1.2420828429484025e-21 0.0000000000000000e+00  9.4110543196718093e-06 -1.5186407461767475e-09 0.0000000000000000e+00  9.4122189672964558e-06 3.5817154817000737e-09 0.0000000000000000e+00  9.4100167625285580e-06 -3.1140591797836885e-09 0.0000000000000000e+00  8.5358775496132210e-06 2.5481515022829400e-06 0.0000000000000000e+00  9.4231134553408518e-06 -2.7091330301029705e-09 0.0000000000000000e+00  9.4077311443934164e-06 3.0500392524339356e-09 0.0000000000000000e+00  9.4208007611798219e-06 2.7701851052730523e-09 0.0000000000000000e+00  9.3683887160793671e-06 1.0534413350831304e-08 0.0000000000000000e+00  9.4165150549094272e-06 6.8291893186648068e-10 0.0000000000000000e+00  9.3867231691322853e-06 2.5856180766075240e-09 0.0000000000000000e+00  9.4085153879151257e-06 1.7868654369572498e-09 0.0000000000000000e+00  9.3683092190433497e-06 6.8934054622934783e-10 0.0000000000000000e+00  9.4194571145505480e-06 -9.0401857063506443e-09 0.0000000000000000e+00  9.3913575643662471e-06 5.5193909333269607e-09 0.0000000000000000e+00  9.3826784806884420e-06 -3.4712371157897426e-09 0.0000000000000000e+00  9.4042725908647891e-06 3.8602893735172617e-09 0.0000000000000000e+00  9.4175554178815442e-06 1.1752287351621887e-08 0.0000000000000000e+00  9.3540836403353419e-06 -1.0890066054201817e-08 0.0000000000000000e+00  9.3532653870551391e-06 1.0185031202494110e-08 0.0000000000000000e+00  9.3686116364647973e-06 -1.4483826822727563e-09 0.0000000000000000e+00  9.3494821126600491e-06 -6.7436866851424516e-09 0.0000000000000000e+00  9.3731581810144344e-06 -5.7262133863650870e-09 0.0000000000000000e+00  9.4188743746339696e-06 -2.5647399749715040e-09 0.0000000000000000e+00  9.4242809646501322e-06 -1.7409180537017728e-09 0.0000000000000000e+00  9.4284164333031294e-06 2.2120031154214391e-09 0.0000000000000000e+00  9.3827020862168846e-06 -8.8893139298268791e-09 0.0000000000000000e+00  8.6348711977630993e-06 -5.2646445802134395e-07 0.0000000000000000e+00  9.6440219279105299e-06 -2.8539480868254567e-07 0.0000000000000000e+00  9.3630574309301863e-06 -9.0811877435931829e-08 0.0000000000000000e+00  9.4222727554132555e-06 -2.8740659373798896e-09 0.0000000000000000e+00  9.4272898380331327e-06 -6.3272968497415099e-09 0.0000000000000000e+00  9.4275331974036857e-06 -1.4931882952937236e-09 0.0000000000000000e+00  6.1428911572424046e-21 -2.4647402791404710e-20 0.0000000000000000e+00  8.5576940265786218e-21 2.0621447824963225e-20 0.0000000000000000e+00  9.4224993273485733e-06 4.5362388335678504e-09 0.0000000000000000e+00  9.4204446314813250e-06 -1.4820206716363154e-08 0.0000000000000000e+00  9.4289845865829624e-06 1.8316789053092795e-09 0.0000000000000000e+00  9.3560614200793106e-06 4.2140939096102264e-09 0.0000000000000000e+00  9.3743055949526079e-06 5.0405219672360990e-09 0.0000000000000000e+00  9.4257846893524041e-06 -1.2672888201567518e-07 0.0000000000000000e+00  9.3061892354384344e-06 -5.8494475694941227e-07 0.0000000000000000e+00  9.1819100891141697e-06 1.0055825889677908e-08 0.0000000000000000e+00  9.3613867082471002e-06 8.1678001882369936e-09 0.0000000000000000e+00  9.3636787599268128e-06 -8.1121579037445906e-10 0.0000000000000000e+00  8.9998252033857497e-06 4.1741704355442599e-09 0.0000000000000000e+00  9.3906882628729536e-06 1.2422773591695050e-07 0.0000000000000000e+00  9.4202074540755208e-06 -1.3107311932905001e-09 0.0000000000000000e+00  9.3275705396886465e-06 1.1070831772605957e-08 0.0000000000000000e+00  7.7733983421639784e-08 -1.1078492834478430e-05 0.0000000000000000e+00  9.4218176085622779e-06 5.8232934070559188e-09 0.0000000000000000e+00  1.0981668293012218e-07 9.6151768449006621e-06 0.0000000000000000e+00  -4.0187193456934493e-19 -4.0210832952415008e-19 0.0000000000000000e+00  -7.7721599379931073e-21 5.6731094437905888e-20 0.0000000000000000e+00  3.7542082364014327e-21 6.3942102416809887e-20 0.0000000000000000e+00  3.4278920268963664e-21 -6.5249391378179426e-20 0.0000000000000000e+00  -7.4822923937885223e-21 -7.0666094830224942e-20 0.0000000000000000e+00  -4.1324307087176600e-19 3.5026481474559576e-19 0.0000000000000000e+00  9.3904810205076305e-06 -6.5206885810602053e-09 0.0000000000000000e+00  9.0575517909392445e-06 -3.8862071911514512e-09 0.0000000000000000e+00  9.0579231818451460e-06 -2.1625959060091500e-08 0.0000000000000000e+00  9.0484731716587494e-06 3.1458784717326389e-09 0.0000000000000000e+00  9.0531051365645083e-06 -1.2605601922840656e-09 0.0000000000000000e+00  9.0454368318876068e-06 1.0004494071997756e-08 0.0000000000000000e+00  9.3418848553093086e-06 1.2377679563880699e-08 0.0000000000000000e+00  9.3822616648137579e-06 1.3656550335977420e-07 0.0000000000000000e+00  9.3448992932117862e-06 -1.6169391019597335e-09 0.0000000000000000e+00  9.4101610475803598e-06 -5.2709249551911107e-09 0.0000000000000000e+00  9.4239226448713310e-06 2.6497777847820427e-09 0.0000000000000000e+00  9.4269800004725410e-06 -2.0745075554663136e-09 0.0000000000000000e+00  -1.6849192483200000e-06 1.3896922862152173e-05 0.0000000000000000e+00  -3.4453685432525776e-06 -1.4459021609845576e-05 0.0000000000000000e+00  9.0747828207314179e-06 -3.0890468644934821e-08 0.0000000000000000e+00  9.3257906475027244e-06 1.1670630973862200e-08 0.0000000000000000e+00  9.4280279893888559e-06 -1.8931332912248721e-09 0.0000000000000000e+00  9.4260020469005104e-06 -2.1517826204775449e-09 0.0000000000000000e+00  6.4258595101342765e-20 7.7387322395183820e-22 0.0000000000000000e+00  8.3387778077989953e-06 6.1047508256552043e-07 0.0000000000000000e+00  3.8655911014544423e-05 4.5133813252902524e-05 0.0000000000000000e+00  3.9188593200024812e-05 -4.8096413925599161e-05 0.0000000000000000e+00  9.4315187326829305e-06 -1.5146718913771993e-09 0.0000000000000000e+00  8.9805561099549441e-06 9.0382985715463986e-09 0.0000000000000000e+00  6.3413909860726139e-20 1.7279355895491425e-22 0.0000000000000000e+00  9.0212604675429780e-06 -1.4536104587362423e-08 0.0000000000000000e+00  9.4316078444706544e-06 1.6636732804202771e-09 0.0000000000000000e+00  9.3029017675980650e-06 7.4866968604698181e-07 0.0000000000000000e+00  9.4154121471485380e-06 3.8499608084855137e-10 0.0000000000000000e+00  6.7417591261796016e-20 -6.8737553036620509e-22 0.0000000000000000e+00  9.4266051988445411e-06 3.7849359333763819e-09 0.0000000000000000e+00  9.4229882097782820e-06 -4.2018640234992299e-09 0.0000000000000000e+00  9.3454054744498682e-06 -3.1925553199914108e-09 0.0000000000000000e+00  9.3706938920083714e-06 1.7878726173777023e-09 0.0000000000000000e+00  9.3474676251127660e-06 -7.0667964125152842e-09 0.0000000000000000e+00  6.5021222135883482e-20 5.4742655395137947e-22 0.0000000000000000e+00  9.3761905506388102e-06 -2.7313664469480356e-09 0.0000000000000000e+00  9.4275849466520862e-06 7.5062554925326501e-09 0.0000000000000000e+00  9.0689838755805115e-06 2.1252307801937263e-08 0.0000000000000000e+00  9.4260960351330566e-06 -4.0720799523407774e-10 0.0000000000000000e+00  9.4271321543039691e-06 -4.6237836543806879e-08 0.0000000000000000e+00  9.4190634519947765e-06 1.3051145029980684e-09 0.0000000000000000e+00  9.4202680977420924e-06 -2.2117648989420436e-09 0.0000000000000000e+00  9.0920052147678015e-06 -1.4249051372420439e-07 0.0000000000000000e+00  9.3700113117901260e-06 5.7085053529969204e-09 0.0000000000000000e+00  9.3663250647218507e-06 -8.3916113472910143e-09 0.0000000000000000e+00  9.3569663588685210e-06 -6.0506445088768489e-09 0.0000000000000000e+00  9.3736132206452388e-06 -1.5107552432460031e-08 0.0000000000000000e+00  9.4184412756791614e-06 2.9243827674212606e-09 0.0000000000000000e+00  7.0395139617174429e-20 -8.2228720792837309e-22 0.0000000000000000e+00  8.7162789046507826e-06 -5.0365014418807453e-06 0.0000000000000000e+00  5.1470972869937822e-06 -9.4824452344984056e-06 0.0000000000000000e+00  2.1951647114430052e-06 -7.1264444854990078e-06 0.0000000000000000e+00  6.7379957124767231e-06 -2.4088861184110183e-06 0.0000000000000000e+00  9.4289870202783941e-06 4.9260754957236775e-10 0.0000000000000000e+00  9.4212636357252824e-06 -4.9718371374645625e-09 0.0000000000000000e+00  9.4200976984683996e-06 8.0103469198754149e-10 0.0000000000000000e+00  9.4198865658814425e-06 -1.7998186775742693e-09 0.0000000000000000e+00  9.4076115388129480e-06 -1.9816182741164015e-08 0.0000000000000000e+00  9.3646535375516266e-06 2.0859480759381011e-08 0.0000000000000000e+00  7.4631782066532146e-20 1.2188986497261616e-22 0.0000000000000000e+00  9.3579632233136513e-06 1.3057107098309192e-08 0.0000000000000000e+00  9.4202082994530421e-06 -2.7899033104295591e-09 0.0000000000000000e+00  9.4199330338283017e-06 5.0179540767737463e-11 0.0000000000000000e+00  9.3557771381711618e-06 8.3934400146816129e-09 0.0000000