<?xml version="1.0"?>
<VTKFile type="UnstructuredGrid"  version="0.1"  >
<UnstructuredGrid>
<Piece  NumberOfPoints="1079" NumberOfCells="1944">
<Points>
<DataArray  type="Float64"  NumberOfComponents="3"  format="ascii">0.08500000000000001 0.02 0  0.005 0.02 0  0.005 0.03 0  0 0.03 0  0 0 0  0.005 0 0  0.005 0.01 0  0.08500000000000001 0.01 0  0 0.015 0  0 0.0075 0  0 0.0225 0  0.04500000000000001 0.02 0  0.04500000000000001 0.01 0  0.025 0.01 0  0.025 0.02 0  0.065 0.02 0  0.065 0.01 0  0.035 0.02 0  0.035 0.01 0  0.07500000000000001 0.02 0  0.07500000000000001 0.01 0  0.015 0.02 0  0.015 0.01 0  0.05500000000000001 0.01 0  0.05500000000000001 0.02 0  0.07000000000000001 0.01 0  0.07000000000000001 0.02 0  0.05 0.01 0  0.03 0.01 0  0.03 0.02 0  0.04000000000000001 0.01 0  0.01 0.01 0  0.02 0.02 0  0.06 0.015 0  0.08500000000000001 0.015 0  0.05 0.02 0  0.07250000000000001 0.015 0  0.04000000000000001 0.02 0  0.03750000000000001 0.015 0  0.0525 0.015 0  0.02 0.01 0  0.01 0.02 0  0.0275 0.015 0  0.0125 0.015 0  0.08000000000000002 0.01 0  0.08000000000000002 0.02 0  0.0325 0.014375 0  0.04291666666666667 0.015 0  0.065 0.015 0  0.005 0.005 0  0.005 0.015 0  0.02208333333333334 0.015 0  0.07791666666666668 0.015 0  0.005 0.025 0  0.06 0.01 0  0.06 0.02 0  0.01729166666666667 0.01572916666666667 0  0.04770833333333334 0.01427083333333334 0  0.06875000000000001 0.01625 0  0.008750000000000001 0.01625 0  0.05625000000000001 0.01625 0  0 0.00375 0  0 0.01875 0  0 0.01125 0  0 0.02625 0  0.08145833333333334 0.01354166666666667 0  0.0675 0.01 0  0.0075 0.0125 0  0.0625 0.0175 0  0.0575 0.0125 0  0.0625 0.0125 0  0.08207465277777778 0.01707465277777778 0  0.06767857142857144 0.01321428571428571 0  0.0175 0.01 0  0.01875 0.01291382575757576 0  0.0475 0.02 0  0.04564168086314595 0.01679860519591141 0  0.00296875 0.0125 0  0.0025 0.03 0  0.0025 0 0  0.00296875 0.0175 0  0.01521990740740741 0.0132349537037037 0  0.0497800925925926 0.0167650462962963 0  0.0325 0.02 0  0.03474264705882353 0.01674632352941176 0  0.03750000000000001 0.02 0  0.03025735294117647 0.01674632352941176 0  0.0275 0.02 0  0.0525 0.02 0  0.0125 0.01 0  0.04020833333333334 0.01322916666666667 0  0.03750000000000001 0.01 0  0.0225 0.02 0  0.02479166666666667 0.01677083333333333 0  0.07520833333333335 0.01322916666666667 0  0.07250000000000001 0.01 0  0.07520833333333335 0.01677083333333334 0  0.07250000000000001 0.02 0  0.04020833333333334 0.01677083333333333 0  0.0225 0.01 0  0.02375 0.01262152777777778 0  0.04250000000000001 0.02 0  0.04250000000000001 0.01 0  0.07750000000000001 0.01 0  0.07750000000000001 0.02 0  0.05036151960784314 0.01294424019607843 0  0.0705560064935065 0.01284699675324675 0  0.05458333333333334 0.01291666666666666 0  0.0021875 0.024375 0  0.005 0.0275 0  0.01125 0.0175 0  0.01463848039215686 0.01705575980392157 0  0.01 0.01375 0  0.03625 0.0125 0  0.0021875 0.009375 0  0.05375000000000001 0.0175 0  0.07125000000000001 0.0175 0  0.005 0.0025 0  0.0021875 0.005625 0  0.02655220103578155 0.01234889948210923 0  0.002187499999999999 0.020625 0  0.02979166666666667 0.01302083333333333 0  0.0525 0.01 0  0.07895833333333334 0.0125 0  0.01994277885235332 0.01704213007736944 0  0.07934656179076068 0.01733823814273861 0  0.04505722114764669 0.01295786992263056 0  0.06625 0.0175 0  0.006250000000000001 0.0175 0  0.05750000000000001 0.02 0  0.05875000000000001 0.0175 0  0.005 0.0225 0  0.005 0.0075 0  0.002375 0.027375 0  0.002375 0.002625000000000001 0  0.0475 0.01 0  0.0175 0.02 0  0.0325 0.01 0  0.03375 0.0121875 0  0.04261299435028249 0.01749205508474576 0  0.08500000000000001 0.0125 0  0.08250000000000002 0.01 0  0.02121963399965531 0.01224824108143494 0  0.0675 0.02 0  0.0125 0.02 0  0.02720152243589744 0.0175 0  0.03715165441176471 0.0175 0  0.08500000000000001 0.0175 0  0.0275 0.01 0  0.0025 0.0149560546875 0  0.0075 0.01 0  0.0075 0.02 0  0.06526785714285716 0.0125 0  0.01281031447005516 0.0125 0  0.0625 0.015 0  0.06 0.0125 0  0.05750000000000001 0.01 0  0.0625 0.02 0  0.0625 0.01 0  0.08250000000000002 0.02 0  0.04260103740101855 0.01252623201412851 0  0.02240052247582197 0.01750164767101344 0  0.07293583459427785 0.01238479732953041 0  0.005234374999999999 0.012265625 0  0.03528131980640358 0.01454684009679821 0  0.0325 0.01760027210036557 0  0.02532593822924343 0.01428227733767297 0  0.08009952069819683 0.01527145502895417 0  0.01987282359856536 0.01482587683689801 0  0.04828232595121382 0.01210233572595705 0  0.01671767404878618 0.01789766427404295 0  0.05125 0.01829007549029352 0  0.05247215456215357 0.01288882122882024 0  0.07338729919678716 0.01799385040160642 0  0.03838729919678716 0.01200614959839357 0  0.07717482110586968 0.01780301674207099 0  0.04771860040890012 0.01773306039388322 0  0.03125 0.01160380747126437 0  0.06875000000000001 0.01154265873015873 0  0.07625000000000001 0.01154065860215054 0  0.01625 0.01153997817696946 0  0.068125 0.018125 0  0.05437500000000001 0.015625 0  0.066875 0.015625 0  0.07039794950204951 0.01494384850614853 0  0.05687500000000001 0.018125 0  0.006875 0.015625 0  0.008749999999999999 0.01833333333333333 0  0.010625 0.015625 0  0.05625 0.01416666666666667 0  0.05812500000000001 0.015625 0  0.0449088595298192 0.01494528408816316 0  0 0.016875 0  0 0.013125 0  0.04962452342047931 0.01478673066448802 0  0.0153754765795207 0.01521326933551198 0  0.0771774565913315 0.01322498191305479 0  0.01857756431135545 0.01840228599899994 0  0.04642243568864456 0.01159771400100006 0  0.08125000000000002 0.01155637254901961 0  0.08317650804863432 0.0118234919513657 0  0.08288217288011697 0.01511353252923977 0  0.02837253504384828 0.0117177464035174 0  0.03896057962520807 0.01831163685754031 0  0.01125 0.0114244162490927 0  0.00935910490099115 0.0119067901980177 0  0.02946078431372549 0.01495404411764706 0  0.02875 0.0185829434466942 0  0.002968749999999999 0.0225 0  0.064375 0.016875 0  0.00296875 0.0075 0  0 0.001875 0  0 0.005625 0  0 0.009375 0  0 0.020625 0  0 0.024375 0  0 0.028125 0  0.06062500000000001 0.01812500000000001 0  0.008303571428571429 0.01446428571428572 0  0.01375 0.01865917058160413 0  0.05137790313978056 0.01143372888932909 0  0.04125000000000001 0.01131513063942604 0  0.04101690263896279 0.01844430285842771 0  0.02399563533148224 0.01844349395710867 0  0.08125000000000002 0.01868815426145731 0  0.05354684380692146 0.01145463537600848 0  0.01699195823639423 0.01315138909884649 0  0.07598357371794873 0.015 0  0.04098357371794872 0.015 0  0.003744047619047619 0.00375 0  0.003344630281690141 0.02580853873239437 0  0.04625 0.0187354532243972 0  0.06388392857142858 0.01138392857142858 0  0.06375 0.01375 0  0.05875 0.01375 0  0.06375 0.02 0  0.00622802734375 0.01372802734375 0  0.003630681818181818 0.001369318181818182 0  0.003630681818181818 0.02863068181818182 0  0.06125 0.01625 0  0.06125 0.01125 0  0.05625000000000001 0.01 0  0.05875 0.01125 0  0.06125 0.01375 0  0.08337864763241221 0.0183786476324122 0  0.05213634138653413 0.01674432930673294 0  0.04375000000000001 0.01 0  0.07424178685897437 0.01529258578431373 0  0.03924178685897436 0.01529258578431372 0  0.03410139294454583 0.01843406022904556 0  0.03089860705545417 0.01843406022904556 0  0.02094160484316717 0.01850229584291991 0  0.04375000000000001 0.02 0  0.04437042160883325 0.01820701498672512 0  0.04816311705429156 0.01600061344661149 0  0.07151224904251052 0.0114127410511319 0  0.04395528506193162 0.01639387970349481 0  0.0128750358694518 0.0167500179347259 0  0.02855808448399799 0.01642839899839741 0  0.02812690373330794 0.01340955081400569 0  0.08358500641945087 0.01351822349116885 0  0.05590277777777778 0.01173611111111111 0  0.06683110430364615 0.01164926404662283 0  0.02573206694914602 0.01842532451809762 0  0.01438126661842046 0.01166701193099454 0  0.02384283211216029 0.01526549696571563 0  0.03625 0.02 0  0.004609375000000001 0.0182421875 0  0.003398437500000001 0.01943359375 0  0.001728307845744682 0.01894718251329787 0  0.004377805359085963 0.01656966216675735 0  0.04649673309852075 0.0153889662370871 0  0.03615513600614297 0.01592654988586041 0  0.03316985071935832 0.01598763605018279 0  0.03110111603888768 0.01529816275177977 0  0.01370614113484869 0.0138804542047638 0  0.04930041102671841 0.01842260568883502 0  0.07875000000000001 0.02 0  0.0745395359848485 0.01165101111925709 0  0.03860755698543604 0.01373741558556884 0  0.02605038706571737 0.01573944002207753 0  0.07559826163500957 0.01841729376139847 0  0.04437500000000001 0.01149157931286774 0  0.06874116707361365 0.01454618473032123 0  0.003761917372881356 0.0239307468220339 0  0.003984374999999999 0.01125 0  0.003768503289473684 0.01392539576480263 0  0.001796875 0.0111328125 0  0.003761917372881356 0.008930746822033899 0  0.005 0.00625 0  0.003761917372881355 0.0210692531779661 0  0.06633928571428571 0.01410714285714285 0  0.006484375 0.01125 0  0.08364120589325512 0.01657288979763549 0  0.03576267476503373 0.0184116442851204 0  0.07370875846579374 0.0137848203678562 0  0.06964285714285715 0.01758928571428571 0  0.05520833333333334 0.01833333333333333 0  0.06491071428571429 0.01839285714285714 0  0.0510098951944636 0.01559941474766356 0  0.01786087179886325 0.0115702210443714 0  0.01972197383235524 0.01160576093166696 0  0.01804697593127788 0.01433503795474974 0  0.001644074528704677 0.01642892723865279 0  0.00125 0.03 0  0.001497685185185185 0.001267746913580247 0  0.07315451164202422 0.01643443118912983 0  0.001233906745910645 0.0140625 0  0.01162635071030191 0.01362229857939618 0  0.01528023503083844 0.01845923557506155 0  0.06625 0.02 0  0.07695012019230771 0.01624387078484555 0  0.03139091092855769 0.01320776147621796 0  0.03857339107781042 0.01675295051810485 0  0.001754993120977522 0.02590789105493891 0  0.002288757784711197 0.00412546923654445 0  0.07914382119690884 0.01404430049871201 0  0.001391810103286306 0.01257390899021902 0  0.0419501201923077 0.01614675005432421 0  0.001484375 0.007018229166666667 0  0.001484375 0.02201822916666666 0  0.048
[...]
<PointData  Vectors="velocity"> 
<DataArray  type="Float64"  Name="velocity"  NumberOfComponents="3" format="ascii">1.7483162681320877e-05 1.3003652672636049e-19 0.0000000000000000e+00  3.6157645004433603e-19 -3.9809209153396206e-19 0.0000000000000000e+00  1.4268865566539767e-17 -7.9248289835392310e-04 0.0000000000000000e+00  -1.6378176128550000e-17 -7.9248289835392159e-04 0.0000000000000000e+00  -1.6212740006039410e-17 7.9248289835392169e-04 0.0000000000000000e+00  1.5509636485369337e-17 7.9248289835392094e-04 0.0000000000000000e+00  3.2951144798495098e-19 3.2947507572935420e-19 0.0000000000000000e+00  1.7953519899004435e-05 -1.3323090397606429e-19 0.0000000000000000e+00  4.0408387734412241e-20 -1.5153145400404590e-22 0.0000000000000000e+00  -3.9056117686350627e-21 3.4980744176269651e-19 0.0000000000000000e+00  2.2513857759809017e-21 -3.6859919344437090e-19 0.0000000000000000e+00  3.3763490154968765e-19 -1.2300610826822300e-21 0.0000000000000000e+00  3.0388744504570565e-19 1.8024140396622786e-21 0.0000000000000000e+00  3.3885637245445443e-19 1.0181982345386250e-21 0.0000000000000000e+00  2.8155052282716965e-19 -1.1614564342701668e-21 0.0000000000000000e+00  3.2128138836113963e-19 8.8047500900672269e-22 0.0000000000000000e+00  3.1424847336360236e-19 4.0757490862287388e-22 0.0000000000000000e+00  2.6437146327554575e-19 -5.3983129632136883e-22 0.0000000000000000e+00  3.8575663058838468e-19 -5.4735558012463292e-22 0.0000000000000000e+00  3.2555990633567745e-19 2.0704047447228505e-21 0.0000000000000000e+00  2.9557431869865426e-19 1.1506466118281657e-21 0.0000000000000000e+00  2.7653192781401258e-19 -6.0534857310376599e-22 0.0000000000000000e+00  2.5916974203671559e-19 -7.1425430710097280e-22 0.0000000000000000e+00  3.2122978084632390e-19 -3.5788167646495693e-21 0.0000000000000000e+00  2.9251853635621251e-19 1.3212331665320106e-21 0.0000000000000000e+00  2.9133765533743512e-19 4.7607155456970063e-22 0.0000000000000000e+00  3.5981412390798582e-19 -1.3297845582536883e-21 0.0000000000000000e+00  3.2060104993998447e-19 1.0525513413919171e-21 0.0000000000000000e+00  3.3545413330248444e-19 2.9300147512833464e-22 0.0000000000000000e+00  2.6378492482471532e-19 -7.3685791990801587e-22 0.0000000000000000e+00  2.9689253519053695e-19 1.0597265962782845e-21 0.0000000000000000e+00  3.2334066462898335e-19 1.7319660413556603e-21 0.0000000000000000e+00  2.8084893783617340e-19 -5.7680798283041419e-22 0.0000000000000000e+00  4.4504490858888054e-05 -6.4845683550919745e-09 0.0000000000000000e+00  4.2739251628014844e-05 7.4360033636758729e-23 0.0000000000000000e+00  2.7807355436937796e-19 1.6447631343172938e-22 0.0000000000000000e+00  4.4503655036299017e-05 1.5004334335413093e-08 0.0000000000000000e+00  3.0991873079116101e-19 -3.0870811074900800e-21 0.0000000000000000e+00  4.4466624627941788e-05 -2.1640106819767540e-08 0.0000000000000000e+00  4.4458120424275878e-05 -2.4338608790274903e-09 0.0000000000000000e+00  3.0544355881631828e-19 1.2107421358858314e-22 0.0000000000000000e+00  3.1129733710984685e-19 -6.3666005947525399e-21 0.0000000000000000e+00  4.4463856101017271e-05 -1.0402362945523603e-09 0.0000000000000000e+00  4.4371132034778617e-05 -1.5394315114059504e-07 0.0000000000000000e+00  2.8240859385223460e-19 -1.1331607902511048e-21 0.0000000000000000e+00  3.0401919187493635e-19 5.4537177631067629e-21 0.0000000000000000e+00  4.4453580702413994e-05 1.3297408264273198e-09 0.0000000000000000e+00  4.4498650213434432e-05 -4.3324009076354022e-09 0.0000000000000000e+00  4.4486607326210712e-05 -3.7458440274024696e-09 0.0000000000000000e+00  -2.2392178095069796e-20 3.9967549879911243e-19 0.0000000000000000e+00  3.3620098022680352e-05 -1.5832648591244387e-06 0.0000000000000000e+00  4.4446590469509971e-05 1.1633385291925707e-08 0.0000000000000000e+00  4.4434837868512779e-05 2.2882701309782333e-09 0.0000000000000000e+00  -3.2846396353596737e-20 -4.5641037194359287e-19 0.0000000000000000e+00  2.8305086585799176e-19 5.6545549686242643e-22 0.0000000000000000e+00  3.2324008636381514e-19 4.0994941711498658e-21 0.0000000000000000e+00  4.4466510347220773e-05 -1.2184053665999551e-08 0.0000000000000000e+00  4.4481707363844904e-05 1.1765548097658066e-08 0.0000000000000000e+00  4.4486971823686805e-05 -1.1333475331538103e-08 0.0000000000000000e+00  4.3779675195289560e-05 -1.3568371363791801e-06 0.0000000000000000e+00  4.4455373856972087e-05 -3.3474190947883469e-08 0.0000000000000000e+00  -1.9443241704209700e-19 7.8697283389540195e-20 0.0000000000000000e+00  1.7656181428425858e-20 -1.7398635832225156e-19 0.0000000000000000e+00  2.3902293265315904e-20 1.9121834612252724e-19 0.0000000000000000e+00  -2.2538194107022189e-19 2.9745839938201875e-20 0.0000000000000000e+00  4.4025876153981614e-05 -4.2590535232252268e-07 0.0000000000000000e+00  2.6816478962625244e-19 -8.0060358510069790e-22 0.0000000000000000e+00  4.3914862472290458e-05 2.5934535966623078e-06 0.0000000000000000e+00  4.4404176083681961e-05 1.4746874833282486e-09 0.0000000000000000e+00  4.4424075493553581e-05 3.6647979658546065e-09 0.0000000000000000e+00  4.4463809554000582e-05 -1.9210397608561557e-08 0.0000000000000000e+00  4.3977763018129801e-05 8.1416060322279560e-07 0.0000000000000000e+00  4.4458850473820282e-05 -8.9976049529156143e-09 0.0000000000000000e+00  2.8727829580755061e-19 -6.9843501947638288e-23 0.0000000000000000e+00  4.4424561690281201e-05 9.7581192556615959e-10 0.0000000000000000e+00  3.6988775827976197e-19 5.3737673709649590e-21 0.0000000000000000e+00  4.4498594585015846e-05 -3.3851988487062110e-08 0.0000000000000000e+00  2.1330232060985144e-05 1.7612512574205103e-05 0.0000000000000000e+00  -8.8629460142814511e-19 -7.9248289835392571e-04 0.0000000000000000e+00  -1.3156329477683957e-18 7.9248289835392614e-04 0.0000000000000000e+00  2.1973698299166183e-05 -2.1404578734655160e-05 0.0000000000000000e+00  4.4410104203454910e-05 -5.6184062274130271e-08 0.0000000000000000e+00  4.4444478124361903e-05 3.9913458330883291e-08 0.0000000000000000e+00  2.9512941460754528e-19 2.6930751006104319e-21 0.0000000000000000e+00  4.4440715561584312e-05 -1.3740334228434226e-08 0.0000000000000000e+00  3.3623284590599791e-19 1.8758275450177520e-21 0.0000000000000000e+00  4.4449303270303070e-05 -1.4089708018982313e-08 0.0000000000000000e+00  3.2278178381718663e-19 6.7102616480084115e-22 0.0000000000000000e+00  3.0749282712291049e-19 -4.8216973775861757e-23 0.0000000000000000e+00  3.3248161727803192e-19 1.8562093573885711e-21 0.0000000000000000e+00  4.4463640442522004e-05 1.3767380193891965e-08 0.0000000000000000e+00  3.0021313137868161e-19 1.1032909959430497e-21 0.0000000000000000e+00  3.2055135150570700e-19 8.6756894287905900e-22 0.0000000000000000e+00  4.4435469164941682e-05 3.6313778616386501e-09 0.0000000000000000e+00  4.4478883797993913e-05 7.1157763235283101e-09 0.0000000000000000e+00  3.0713848394563068e-19 1.3358275661997424e-22 0.0000000000000000e+00  4.4470432901437089e-05 3.0501376060846589e-08 0.0000000000000000e+00  3.5003447028534321e-19 3.6036827037715063e-21 0.0000000000000000e+00  4.4490947864475714e-05 -5.6526051806843020e-08 0.0000000000000000e+00  2.7170193691312325e-19 6.5746458738656758e-23 0.0000000000000000e+00  4.4397623190069782e-05 3.0162816104612134e-08 0.0000000000000000e+00  3.3053502770051567e-19 -5.8688747816142699e-23 0.0000000000000000e+00  3.0338135825054810e-19 2.9229129027216300e-21 0.0000000000000000e+00  3.3878057595671647e-19 5.6526934979653691e-21 0.0000000000000000e+00  3.3651823408331091e-19 -2.1218856364227254e-21 0.0000000000000000e+00  4.4473113391078312e-05 3.3643172122305596e-08 0.0000000000000000e+00  4.4483587685293138e-05 5.2576970245679973e-08 0.0000000000000000e+00  4.4470574680018185e-05 5.5475528520625989e-09 0.0000000000000000e+00  -8.7117796911909190e-06 -4.8634528119998134e-05 0.0000000000000000e+00  7.2600655191622732e-20 -6.3162439039523986e-19 0.0000000000000000e+00  4.4608266661892956e-05 -3.5761342146020375e-07 0.0000000000000000e+00  4.4528400740497675e-05 -1.1724971267382910e-07 0.0000000000000000e+00  4.3960733701594284e-05 1.4709816209966535e-07 0.0000000000000000e+00  4.4364910991993082e-05 -4.7744096324723386e-08 0.0000000000000000e+00  7.5264524010348532e-06 4.0091486295696053e-05 0.0000000000000000e+00  4.4403170364832256e-05 -5.4864418303022498e-11 0.0000000000000000e+00  4.4497656225152327e-05 2.2553847451813328e-10 0.0000000000000000e+00  1.2601122043233282e-19 3.5295526116181675e-19 0.0000000000000000e+00  -7.7658439972921473e-06 4.2710527123511882e-05 0.0000000000000000e+00  4.4397098745803942e-05 -3.0548458946225783e-08 0.0000000000000000e+00  7.4405840695451361e-06 -4.5435147182354908e-05 0.0000000000000000e+00  4.4473685885420060e-05 -7.2196162452708525e-09 0.0000000000000000e+00  2.8847800304569932e-19 -2.5544694011251651e-21 0.0000000000000000e+00  4.4387935569700338e-05 -1.3613680691993065e-07 0.0000000000000000e+00  4.4428903091123126e-05 1.4740207154109392e-09 0.0000000000000000e+00  4.4410282613880760e-05 2.0533936907599439e-07 0.0000000000000000e+00  4.4484599711502839e-05 -9.8438551489921330e-09 0.0000000000000000e+00  4.4465342749480506e-05 -5.2581396051550379e-08 0.0000000000000000e+00  4.4302152605893122e-05 -8.0697254001060314e-06 0.0000000000000000e+00  3.1292337432668958e-19 -4.4262992153031072e-21 0.0000000000000000e+00  4.4384260207412218e-05 -1.5472654193976336e-08 0.0000000000000000e+00  4.5491444734143779e-21 -4.0338525382242926e-19 0.0000000000000000e+00  3.8478597632595045e-21 3.7053336389776590e-19 0.0000000000000000e+00  -9.5415302876120919e-05 -1.0963712341768993e-04 0.0000000000000000e+00  -7.8301343303348526e-05 9.0972802939150629e-05 0.0000000000000000e+00  2.9960263805537941e-19 9.9332954119923493e-23 0.0000000000000000e+00  3.4839402911390145e-19 4.9153664466927307e-21 0.0000000000000000e+00  2.8161251005753697e-19 6.3869390664677583e-22 0.0000000000000000e+00  4.4386531140545986e-05 5.4041480815550137e-08 0.0000000000000000e+00  4.4405017519020962e-05 3.2844550603094284e-08 0.0000000000000000e+00  4.0394303103131752e-05 -1.0541150289388308e-20 0.0000000000000000e+00  3.1015015742387444e-19 -1.0313895551667700e-20 0.0000000000000000e+00  4.4405120467088242e-05 1.3067985555374493e-08 0.0000000000000000e+00  3.2262578036446478e-19 1.9377159353486040e-21 0.0000000000000000e+00  3.0812742125115513e-19 -5.8671215964041636e-22 0.0000000000000000e+00  4.4447921200973382e-05 -5.5272354273162238e-09 0.0000000000000000e+00  4.4496435291760586e-05 4.6582683198021453e-09 0.0000000000000000e+00  4.0348265077958079e-05 1.3304057528761079e-20 0.0000000000000000e+00  3.2572614889995330e-19 -3.8973054801239054e-21 0.0000000000000000e+00  1.6537675017372958e-05 -1.3832013555069307e-06 0.0000000000000000e+00  3.2349802043949811e-19 1.0301088726731985e-20 0.0000000000000000e+00  4.0962275002065096e-19 -1.4600858278077881e-20 0.0000000000000000e+00  4.4449972545282474e-05 -1.9991335189429741e-08 0.0000000000000000e+00  4.4307269680494097e-05 -4.2689751251338383e-08 0.0000000000000000e+00  4.4508497499610804e-05 2.9873262018765941e-10 0.0000000000000000e+00  4.4424614357436397e-05 2.7861716499207193e-08 0.0000000000000000e+00  3.4161542949140710e-19 3.5828633561612557e-22 0.0000000000000000e+00  3.7118332723769083e-19 9.1552211780850275e-22 0.0000000000000000e+00  3.0689308817816298e-19 -6.0213653188193360e-21 0.0000000000000000e+00  2.8895627958470060e-19 5.5568329899559139e-21 0.0000000000000000e+00  4.4415929966874274e-05 -7.2825037126186861e-09 0.0000000000000000e+00  4.4421268949498496e-05 1.7389717971781748e-08 0.0000000000000000e+00  4.4411157693065798e-05 -1.4843430114390778e-08 0.0000000000000000e+00  4.0389779948428436e-05 1.2172537751803627e-05 0.0000000000000000e+00  4.4473155171084728e-05 -1.2790572612752013e-08 0.0000000000000000e+00  4.4400695597453994e-05 1.4534189411640529e-08 0.0000000000000000e+00  4.4462294123489672e-05 1.3278306727846395e-08 0.0000000000000000e+00  4.4214474506841853e-05 4.9756871243241838e-08 0.0000000000000000e+00  4.4442044829221240e-05 4.6160336686072895e-09 0.0000000000000000e+00  4.4301514733044424e-05 1.2129766032329489e-08 0.0000000000000000e+00  4.4401032625006087e-05 1.0964546652681074e-08 0.0000000000000000e+00  4.4214618754463933e-05 3.3239807178339860e-09 0.0000000000000000e+00  4.4455915608428682e-05 -4.2652541500288126e-08 0.0000000000000000e+00  4.4323404973293394e-05 2.6299351660120664e-08 0.0000000000000000e+00  4.4282418558042603e-05 -1.6442003241896910e-08 0.0000000000000000e+00  4.4384366552599194e-05 1.8440021246503765e-08 0.0000000000000000e+00  4.4446991231621151e-05 5.5709341088202063e-08 0.0000000000000000e+00  4.4147470075212570e-05 -5.1394384918742446e-08 0.0000000000000000e+00  4.4143341800240909e-05 4.7978378696938348e-08 0.0000000000000000e+00  4.4215831435257972e-05 -6.6938573594412173e-09 0.0000000000000000e+00  4.4129872385775351e-05 -3.0026343217421824e-08 0.0000000000000000e+00  4.4237507688730523e-05 -2.6883101790577721e-08 0.0000000000000000e+00  4.4453150950760812e-05 -1.2122166382729143e-08 0.0000000000000000e+00  4.4478665778734366e-05 -8.2266258021627064e-09 0.0000000000000000e+00  4.4498181654719241e-05 1.0452873893878371e-08 0.0000000000000000e+00  4.4282173969163328e-05 -4.2006739487602166e-08 0.0000000000000000e+00  4.0738207005676498e-05 -2.3873547213890301e-06 0.0000000000000000e+00  4.5463995231930635e-05 -1.3186048207537368e-06 0.0000000000000000e+00  4.4184169155775632e-05 -3.9858753557346844e-07 0.0000000000000000e+00  4.4469195164811399e-05 -1.3573264415963324e-08 0.0000000000000000e+00  4.4492881610307239e-05 -2.9861146091972954e-08 0.0000000000000000e+00  4.4494011392591221e-05 -7.0357554543124010e-09 0.0000000000000000e+00  3.0031912324296200e-20 -1.1042036450549309e-19 0.0000000000000000e+00  4.0799259726205118e-20 9.4185906854450614e-20 0.0000000000000000e+00  4.4470230491065164e-05 2.1402085060314701e-08 0.0000000000000000e+00  4.4460122260637010e-05 -6.3797092646793182e-08 0.0000000000000000e+00  4.4500787261739446e-05 8.5670270856775665e-09 0.0000000000000000e+00  4.4154636766257118e-05 2.0737590909961770e-08 0.0000000000000000e+00  4.4242897168446401e-05 2.3591203766265945e-08 0.0000000000000000e+00  4.4485701903527689e-05 -5.9885810466248031e-07 0.0000000000000000e+00  4.3919727253932759e-05 -2.7617124050062788e-06 0.0000000000000000e+00  4.3333205207966268e-05 4.7545719338522389e-08 0.0000000000000000e+00  4.4182151846806659e-05 3.8525554796428228e-08 0.0000000000000000e+00  4.4192714105927778e-05 -3.9736717229862277e-09 0.0000000000000000e+00  4.2497388844819133e-05 2.7406139476956883e-08 0.0000000000000000e+00  4.4360513092501628e-05 6.0931702539947510e-07 0.0000000000000000e+00  4.4459430867350617e-05 -6.1239426593998802e-09 0.0000000000000000e+00  4.4022300799080014e-05 5.2356921870756760e-08 0.0000000000000000e+00  4.9336468464029318e-07 -5.1895779656042381e-05 0.0000000000000000e+00  4.4466973540415022e-05 2.7520731194766027e-08 0.0000000000000000e+00  6.2609549226645876e-07 4.5690601175425337e-05 0.0000000000000000e+00  -1.8188987252684301e-18 -1.8964531466662657e-18 0.0000000000000000e+00  -3.4492505418246781e-20 2.7775543836798723e-19 0.0000000000000000e+00  1.8076671660855751e-20 3.1669121029102060e-19 0.0000000000000000e+00  1.6059743919565534e-20 -3.1070850421726268e-19 0.0000000000000000e+00  -3.3878157227431365e-20 -3.2755813368363088e-19 0.0000000000000000e+00  -1.9032979942786206e-18 1.5408496511650785e-18 0.0000000000000000e+00  4.4319154828294215e-05 -3.0751637817274115e-08 0.0000000000000000e+00  4.2759906241917875e-05 4.3857599853096415e-08 0.0000000000000000e+00  4.2739508604823857e-05 -9.7603897598644018e-08 0.0000000000000000e+00  4.2705176930660178e-05 1.3697209397425237e-08 0.0000000000000000e+00  4.2726953108422912e-05 -6.3851511968458917e-09 0.0000000000000000e+00  4.2690171381297892e-05 4.8336408308083096e-08 0.0000000000000000e+00  4.4089238688446623e-05 5.8562682057743782e-08 0.0000000000000000e+00  4.4280709796381843e-05 6.4486900288624396e-07 0.0000000000000000e+00  4.4103904835687064e-05 -7.2491973429572628e-09 0.0000000000000000e+00  4.4414084969643916e-05 -2.1866395336869591e-08 0.0000000000000000e+00  4.4476931794529779e-05 1.2493350922554060e-08 0.0000000000000000e+00  4.4491411812256487e-05 -9.7886368976374424e-09 0.0000000000000000e+00  -7.3535047865930461e-06 6.4816511750254326e-05 0.0000000000000000e+00  -1.5095906258225989e-05 -6.6965275676967494e-05 0.0000000000000000e+00  4.2827648483066686e-05 -1.4583242175846898e-07 0.0000000000000000e+00  4.4013617654802582e-05 5.5320402816942106e-08 0.0000000000000000e+00  4.4496328429174050e-05 -8.9359851050310746e-09 0.0000000000000000e+00  4.4486811843132048e-05 -1.0137647498181043e-08 0.0000000000000000e+00  3.2602490292805792e-19 3.5789789243395131e-21 0.0000000000000000e+00  3.9396215736953930e-05 2.9933376752726283e-06 0.0000000000000000e+00  1.7949885111565728e-04 2.0735507047669978e-04 0.0000000000000000e+00  1.8018221276589564e-04 -2.1993138357482550e-04 0.0000000000000000e+00  4.4512795101014769e-05 -7.1209328228723387e-09 0.0000000000000000e+00  4.2382834431797965e-05 4.2356925753598344e-08 0.0000000000000000e+00  3.0666308697026493e-19 9.2516152794579874e-22 0.0000000000000000e+00  4.2576710878820992e-05 -6.9305661555062874e-08 0.0000000000000000e+00  4.4513253092740009e-05 7.8437239260898939e-09 0.0000000000000000e+00  4.3906224597253626e-05 3.5329349545499955e-06 0.0000000000000000e+00  4.4436793854989740e-05 1.7990784178432988e-09 0.0000000000000000e+00  3.2065457367417952e-19 -3.1089040698410748e-21 0.0000000000000000e+00  4.4489610287181617e-05 1.7860043282736117e-08 0.0000000000000000e+00  4.4472566311279755e-05 -1.9826040118816578e-08 0.0000000000000000e+00  4.4106362084266495e-05 -1.5214027350930182e-08 0.0000000000000000e+00  4.4225727117833213e-05 8.4672309452655249e-09 0.0000000000000000e+00  4.4115212206281830e-05 -3.2829040942213069e-08 0.0000000000000000e+00  3.1687272538669186e-19 2.6087447800466423e-21 0.0000000000000000e+00  4.4251514984737506e-05 -1.3017608946972888e-08 0.0000000000000000e+00  4.4494231722268074e-05 3.5443037139973614e-08 0.0000000000000000e+00  4.2801955008247788e-05 9.9514518129484299e-08 0.0000000000000000e+00  4.4487234276799040e-05 -1.9096277083386343e-09 0.0000000000000000e+00  4.4484254157277421e-05 -2.0604668728123026e-07 0.0000000000000000e+00  4.4454003036183655e-05 6.2340136772295971e-09 0.0000000000000000e+00  4.4459746020971068e-05 -1.0387801657903399e-08 0.0000000000000000e+00  4.2908909816634151e-05 -6.7398921639613844e-07 0.0000000000000000e+00  4.4222681399355978e-05 2.6766563529496227e-08 0.0000000000000000e+00  4.4204996740613649e-05 -3.9817481855127144e-08 0.0000000000000000e+00  4.4160939694917213e-05 -2.8275186241982417e-08 0.0000000000000000e+00  4.4246643115075669e-05 -6.7317985167054001e-08 0.0000000000000000e+00  4.4451072113332685e-05 1.4161707710085960e-08 0.0000000000000000e+00  3.2216497774278939e-19 -3.7835426312629741e-21 0.0000000000000000e+00  4.1022094275807844e-05 -2.3580493990394781e-05 0.0000000000000000e+00  2.4208839086708016e-05 -4.4437984156960321e-05 0.0000000000000000e+00  1.0338102799518401e-05 -3.3362909187963716e-05 0.0000000000000000e+00  3.1756947092683269e-05 -1.1194021681180626e-05 0.0000000000000000e+00  4.4500869169754701e-05 2.3447172897834601e-09 0.0000000000000000e+00  4.4464427723304142e-05 -2.3469451090800812e-08 0.0000000000000000e+00  4.4458912329831772e-05 3.7936569836119934e-09 0.0000000000000000e+00  4.4457920357740538e-05 -8.4513070694649413e-09 0.0000000000000000e+00  4.4404018041320896e-05 -8.3497140366560749e-08 0.0000000000000000e+00  4.4196871159405405e-05 9.8330238500567260e-08 0.0000000000000000e+00  3.5514434224763575e-19 6.0819272831697131e-22 0.0000000000000000e+00  4.4165921101813802e-05 6.1458439891589419e-08 0.0000000000000000e+00  4.4459446972047579e-05 -1.3156721146942202e-08 0.0000000000000000e+00  4.4458093380595100e-05 4.0000287912002399e-10 0.0000000000000000e+00  4.4155377167062786e-05 3.9518029009058974e-08 0.000000000