<?xml version="1.0"?>
<VTKFile type="UnstructuredGrid"  version="0.1"  >
<UnstructuredGrid>
<Piece  NumberOfPoints="1079" NumberOfCells="1944">
<Points>
<DataArray  type="Float64"  NumberOfComponents="3"  format="ascii">0.08500000000000001 0.02 0  0.005 0.02 0  0.005 0.03 0  0 0.03 0  0 0 0  0.005 0 0  0.005 0.01 0  0.08500000000000001 0.01 0  0 0.015 0  0 0.0075 0  0 0.0225 0  0.04500000000000001 0.02 0  0.04500000000000001 0.01 0  0.025 0.01 0  0.025 0.02 0  0.065 0.02 0  0.065 0.01 0  0.035 0.02 0  0.035 0.01 0  0.07500000000000001 0.02 0  0.07500000000000001 0.01 0  0.015 0.02 0  0.015 0.01 0  0.05500000000000001 0.01 0  0.05500000000000001 0.02 0  0.07000000000000001 0.01 0  0.07000000000000001 0.02 0  0.05 0.01 0  0.03 0.01 0  0.03 0.02 0  0.04000000000000001 0.01 0  0.01 0.01 0  0.02 0.02 0  0.06 0.015 0  0.08500000000000001 0.015 0  0.05 0.02 0  0.07250000000000001 0.015 0  0.04000000000000001 0.02 0  0.03750000000000001 0.015 0  0.0525 0.015 0  0.02 0.01 0  0.01 0.02 0  0.0275 0.015 0  0.0125 0.015 0  0.08000000000000002 0.01 0  0.08000000000000002 0.02 0  0.0325 0.014375 0  0.04291666666666667 0.015 0  0.065 0.015 0  0.005 0.005 0  0.005 0.015 0  0.02208333333333334 0.015 0  0.07791666666666668 0.015 0  0.005 0.025 0  0.06 0.01 0  0.06 0.02 0  0.01729166666666667 0.01572916666666667 0  0.04770833333333334 0.01427083333333334 0  0.06875000000000001 0.01625 0  0.008750000000000001 0.01625 0  0.05625000000000001 0.01625 0  0 0.00375 0  0 0.01875 0  0 0.01125 0  0 0.02625 0  0.08145833333333334 0.01354166666666667 0  0.0675 0.01 0  0.0075 0.0125 0  0.0625 0.0175 0  0.0575 0.0125 0  0.0625 0.0125 0  0.08207465277777778 0.01707465277777778 0  0.06767857142857144 0.01321428571428571 0  0.0175 0.01 0  0.01875 0.01291382575757576 0  0.0475 0.02 0  0.04564168086314595 0.01679860519591141 0  0.00296875 0.0125 0  0.0025 0.03 0  0.0025 0 0  0.00296875 0.0175 0  0.01521990740740741 0.0132349537037037 0  0.0497800925925926 0.0167650462962963 0  0.0325 0.02 0  0.03474264705882353 0.01674632352941176 0  0.03750000000000001 0.02 0  0.03025735294117647 0.01674632352941176 0  0.0275 0.02 0  0.0525 0.02 0  0.0125 0.01 0  0.04020833333333334 0.01322916666666667 0  0.03750000000000001 0.01 0  0.0225 0.02 0  0.02479166666666667 0.01677083333333333 0  0.07520833333333335 0.01322916666666667 0  0.07250000000000001 0.01 0  0.07520833333333335 0.01677083333333334 0  0.07250000000000001 0.02 0  0.04020833333333334 0.01677083333333333 0  0.0225 0.01 0  0.02375 0.01262152777777778 0  0.04250000000000001 0.02 0  0.04250000000000001 0.01 0  0.07750000000000001 0.01 0  0.07750000000000001 0.02 0  0.05036151960784314 0.01294424019607843 0  0.0705560064935065 0.01284699675324675 0  0.05458333333333334 0.01291666666666666 0  0.0021875 0.024375 0  0.005 0.0275 0  0.01125 0.0175 0  0.01463848039215686 0.01705575980392157 0  0.01 0.01375 0  0.03625 0.0125 0  0.0021875 0.009375 0  0.05375000000000001 0.0175 0  0.07125000000000001 0.0175 0  0.005 0.0025 0  0.0021875 0.005625 0  0.02655220103578155 0.01234889948210923 0  0.002187499999999999 0.020625 0  0.02979166666666667 0.01302083333333333 0  0.0525 0.01 0  0.07895833333333334 0.0125 0  0.01994277885235332 0.01704213007736944 0  0.07934656179076068 0.01733823814273861 0  0.04505722114764669 0.01295786992263056 0  0.06625 0.0175 0  0.006250000000000001 0.0175 0  0.05750000000000001 0.02 0  0.05875000000000001 0.0175 0  0.005 0.0225 0  0.005 0.0075 0  0.002375 0.027375 0  0.002375 0.002625000000000001 0  0.0475 0.01 0  0.0175 0.02 0  0.0325 0.01 0  0.03375 0.0121875 0  0.04261299435028249 0.01749205508474576 0  0.08500000000000001 0.0125 0  0.08250000000000002 0.01 0  0.02121963399965531 0.01224824108143494 0  0.0675 0.02 0  0.0125 0.02 0  0.02720152243589744 0.0175 0  0.03715165441176471 0.0175 0  0.08500000000000001 0.0175 0  0.0275 0.01 0  0.0025 0.0149560546875 0  0.0075 0.01 0  0.0075 0.02 0  0.06526785714285716 0.0125 0  0.01281031447005516 0.0125 0  0.0625 0.015 0  0.06 0.0125 0  0.05750000000000001 0.01 0  0.0625 0.02 0  0.0625 0.01 0  0.08250000000000002 0.02 0  0.04260103740101855 0.01252623201412851 0  0.02240052247582197 0.01750164767101344 0  0.07293583459427785 0.01238479732953041 0  0.005234374999999999 0.012265625 0  0.03528131980640358 0.01454684009679821 0  0.0325 0.01760027210036557 0  0.02532593822924343 0.01428227733767297 0  0.08009952069819683 0.01527145502895417 0  0.01987282359856536 0.01482587683689801 0  0.04828232595121382 0.01210233572595705 0  0.01671767404878618 0.01789766427404295 0  0.05125 0.01829007549029352 0  0.05247215456215357 0.01288882122882024 0  0.07338729919678716 0.01799385040160642 0  0.03838729919678716 0.01200614959839357 0  0.07717482110586968 0.01780301674207099 0  0.04771860040890012 0.01773306039388322 0  0.03125 0.01160380747126437 0  0.06875000000000001 0.01154265873015873 0  0.07625000000000001 0.01154065860215054 0  0.01625 0.01153997817696946 0  0.068125 0.018125 0  0.05437500000000001 0.015625 0  0.066875 0.015625 0  0.07039794950204951 0.01494384850614853 0  0.05687500000000001 0.018125 0  0.006875 0.015625 0  0.008749999999999999 0.01833333333333333 0  0.010625 0.015625 0  0.05625 0.01416666666666667 0  0.05812500000000001 0.015625 0  0.0449088595298192 0.01494528408816316 0  0 0.016875 0  0 0.013125 0  0.04962452342047931 0.01478673066448802 0  0.0153754765795207 0.01521326933551198 0  0.0771774565913315 0.01322498191305479 0  0.01857756431135545 0.01840228599899994 0  0.04642243568864456 0.01159771400100006 0  0.08125000000000002 0.01155637254901961 0  0.08317650804863432 0.0118234919513657 0  0.08288217288011697 0.01511353252923977 0  0.02837253504384828 0.0117177464035174 0  0.03896057962520807 0.01831163685754031 0  0.01125 0.0114244162490927 0  0.00935910490099115 0.0119067901980177 0  0.02946078431372549 0.01495404411764706 0  0.02875 0.0185829434466942 0  0.002968749999999999 0.0225 0  0.064375 0.016875 0  0.00296875 0.0075 0  0 0.001875 0  0 0.005625 0  0 0.009375 0  0 0.020625 0  0 0.024375 0  0 0.028125 0  0.06062500000000001 0.01812500000000001 0  0.008303571428571429 0.01446428571428572 0  0.01375 0.01865917058160413 0  0.05137790313978056 0.01143372888932909 0  0.04125000000000001 0.01131513063942604 0  0.04101690263896279 0.01844430285842771 0  0.02399563533148224 0.01844349395710867 0  0.08125000000000002 0.01868815426145731 0  0.05354684380692146 0.01145463537600848 0  0.01699195823639423 0.01315138909884649 0  0.07598357371794873 0.015 0  0.04098357371794872 0.015 0  0.003744047619047619 0.00375 0  0.003344630281690141 0.02580853873239437 0  0.04625 0.0187354532243972 0  0.06388392857142858 0.01138392857142858 0  0.06375 0.01375 0  0.05875 0.01375 0  0.06375 0.02 0  0.00622802734375 0.01372802734375 0  0.003630681818181818 0.001369318181818182 0  0.003630681818181818 0.02863068181818182 0  0.06125 0.01625 0  0.06125 0.01125 0  0.05625000000000001 0.01 0  0.05875 0.01125 0  0.06125 0.01375 0  0.08337864763241221 0.0183786476324122 0  0.05213634138653413 0.01674432930673294 0  0.04375000000000001 0.01 0  0.07424178685897437 0.01529258578431373 0  0.03924178685897436 0.01529258578431372 0  0.03410139294454583 0.01843406022904556 0  0.03089860705545417 0.01843406022904556 0  0.02094160484316717 0.01850229584291991 0  0.04375000000000001 0.02 0  0.04437042160883325 0.01820701498672512 0  0.04816311705429156 0.01600061344661149 0  0.07151224904251052 0.0114127410511319 0  0.04395528506193162 0.01639387970349481 0  0.0128750358694518 0.0167500179347259 0  0.02855808448399799 0.01642839899839741 0  0.02812690373330794 0.01340955081400569 0  0.08358500641945087 0.01351822349116885 0  0.05590277777777778 0.01173611111111111 0  0.06683110430364615 0.01164926404662283 0  0.02573206694914602 0.01842532451809762 0  0.01438126661842046 0.01166701193099454 0  0.02384283211216029 0.01526549696571563 0  0.03625 0.02 0  0.004609375000000001 0.0182421875 0  0.003398437500000001 0.01943359375 0  0.001728307845744682 0.01894718251329787 0  0.004377805359085963 0.01656966216675735 0  0.04649673309852075 0.0153889662370871 0  0.03615513600614297 0.01592654988586041 0  0.03316985071935832 0.01598763605018279 0  0.03110111603888768 0.01529816275177977 0  0.01370614113484869 0.0138804542047638 0  0.04930041102671841 0.01842260568883502 0  0.07875000000000001 0.02 0  0.0745395359848485 0.01165101111925709 0  0.03860755698543604 0.01373741558556884 0  0.02605038706571737 0.01573944002207753 0  0.07559826163500957 0.01841729376139847 0  0.04437500000000001 0.01149157931286774 0  0.06874116707361365 0.01454618473032123 0  0.003761917372881356 0.0239307468220339 0  0.003984374999999999 0.01125 0  0.003768503289473684 0.01392539576480263 0  0.001796875 0.0111328125 0  0.003761917372881356 0.008930746822033899 0  0.005 0.00625 0  0.003761917372881355 0.0210692531779661 0  0.06633928571428571 0.01410714285714285 0  0.006484375 0.01125 0  0.08364120589325512 0.01657288979763549 0  0.03576267476503373 0.0184116442851204 0  0.07370875846579374 0.0137848203678562 0  0.06964285714285715 0.01758928571428571 0  0.05520833333333334 0.01833333333333333 0  0.06491071428571429 0.01839285714285714 0  0.0510098951944636 0.01559941474766356 0  0.01786087179886325 0.0115702210443714 0  0.01972197383235524 0.01160576093166696 0  0.01804697593127788 0.01433503795474974 0  0.001644074528704677 0.01642892723865279 0  0.00125 0.03 0  0.001497685185185185 0.001267746913580247 0  0.07315451164202422 0.01643443118912983 0  0.001233906745910645 0.0140625 0  0.01162635071030191 0.01362229857939618 0  0.01528023503083844 0.01845923557506155 0  0.06625 0.02 0  0.07695012019230771 0.01624387078484555 0  0.03139091092855769 0.01320776147621796 0  0.03857339107781042 0.01675295051810485 0  0.001754993120977522 0.02590789105493891 0  0.002288757784711197 0.00412546923654445 0  0.07914382119690884 0.01404430049871201 0  0.001391810103286306 0.01257390899021902 0  0.0419501201923077 0.01614675005432421 0  0.001484375 0.007018229166666667 0  0.001484375 0.02201822916666666 0  0.048
[...]
<PointData  Vectors="velocity"> 
<DataArray  type="Float64"  Name="velocity"  NumberOfComponents="3" format="ascii">2.1411746359319849e-05 1.5944177146347718e-19 0.0000000000000000e+00  4.4319964866820594e-19 -4.8973919174321946e-19 0.0000000000000000e+00  1.6874484496081811e-17 -9.5454845666184088e-04 0.0000000000000000e+00  -2.0514079191315151e-17 -9.5454845666183925e-04 0.0000000000000000e+00  -1.9521462456251536e-17 9.5454845666183947e-04 0.0000000000000000e+00  1.7370792863613658e-17 9.5454845666183860e-04 0.0000000000000000e+00  4.4215102663769420e-19 4.0631941107315265e-19 0.0000000000000000e+00  2.1987170191281842e-05 -1.6387401189055905e-19 0.0000000000000000e+00  5.0510484668015298e-20 3.0306290800809180e-22 0.0000000000000000e+00  -4.7871719372368273e-21 4.1275575052006831e-19 0.0000000000000000e+00  3.2679604324790071e-21 -4.5554350412442428e-19 0.0000000000000000e+00  3.9535439032130495e-19 -1.5189338422771202e-21 0.0000000000000000e+00  3.6444783780706236e-19 2.1924314194467713e-21 0.0000000000000000e+00  4.1010309691923715e-19 1.2082619049858351e-21 0.0000000000000000e+00  3.5765827800234028e-19 -1.4004016896517038e-21 0.0000000000000000e+00  3.9697595629962805e-19 1.2845736138866738e-21 0.0000000000000000e+00  3.8433119684406170e-19 4.9409132141536788e-22 0.0000000000000000e+00  3.0998556882981375e-19 -7.1896803739113296e-22 0.0000000000000000e+00  4.9376061322973209e-19 -3.3525689478015445e-22 0.0000000000000000e+00  3.9738438501077616e-19 2.4735549997884862e-21 0.0000000000000000e+00  3.4903998044277942e-19 1.4540705471390175e-21 0.0000000000000000e+00  3.3035357819392109e-19 -7.7934097734915984e-22 0.0000000000000000e+00  3.2966091529469659e-19 -7.3752926084568835e-22 0.0000000000000000e+00  3.9924272762328826e-19 -4.4074284353659851e-21 0.0000000000000000e+00  3.5438264010254725e-19 1.6301508432633711e-21 0.0000000000000000e+00  3.5749799937820725e-19 5.8035389509449225e-22 0.0000000000000000e+00  4.0939981589530544e-19 -1.4638804800943964e-21 0.0000000000000000e+00  4.0217428234094971e-19 1.2314930895024935e-21 0.0000000000000000e+00  3.9309946055736270e-19 2.4959384918339617e-22 0.0000000000000000e+00  3.2223437830225339e-19 -8.1684018835068738e-22 0.0000000000000000e+00  3.6999433439230456e-19 1.2860135513036959e-21 0.0000000000000000e+00  3.7755347067456139e-19 2.2386984639357005e-21 0.0000000000000000e+00  3.4849483945182157e-19 -7.3926014198764306e-22 0.0000000000000000e+00  5.4475290053203382e-05 -7.9308122473898520e-09 0.0000000000000000e+00  5.2313371557334696e-05 1.3899823442156244e-22 0.0000000000000000e+00  3.3380638368419095e-19 2.4476976826177270e-22 0.0000000000000000e+00  5.4474262121060914e-05 1.8366199439569883e-08 0.0000000000000000e+00  3.8598969198535505e-19 -3.6318601264589175e-21 0.0000000000000000e+00  5.4428940171415934e-05 -2.6486781908451128e-08 0.0000000000000000e+00  5.4418526883048726e-05 -2.9828644329251210e-09 0.0000000000000000e+00  3.5767554285182253e-19 1.3625180533208612e-22 0.0000000000000000e+00  3.9060876057732371e-19 -7.6832941484118249e-21 0.0000000000000000e+00  5.4425547816069683e-05 -1.2413480332596042e-09 0.0000000000000000e+00  5.4312058039058061e-05 -1.8334626816507248e-07 0.0000000000000000e+00  3.5803265245701708e-19 -1.3593313756780055e-21 0.0000000000000000e+00  3.8306213533828583e-19 6.8220645881825256e-21 0.0000000000000000e+00  5.4412975346270762e-05 1.6349640460951805e-09 0.0000000000000000e+00  5.4468143859855188e-05 -5.3010700281715877e-09 0.0000000000000000e+00  5.4453389756639766e-05 -4.5857358389141534e-09 0.0000000000000000e+00  -2.5676364215680033e-20 4.8566146268418044e-19 0.0000000000000000e+00  4.1153219018550296e-05 -1.8908185041269560e-06 0.0000000000000000e+00  5.4404414718587240e-05 1.4450171061201360e-08 0.0000000000000000e+00  5.4389979533648323e-05 2.8011441277250189e-09 0.0000000000000000e+00  -3.9432428568975968e-20 -5.4551092163129287e-19 0.0000000000000000e+00  3.4121200267812705e-19 5.5283372237889015e-22 0.0000000000000000e+00  4.0437260598996642e-19 4.9042347141038655e-21 0.0000000000000000e+00  5.4428510177465081e-05 -1.3921812248008728e-08 0.0000000000000000e+00  5.4447393662944442e-05 1.4402194983873194e-08 0.0000000000000000e+00  5.4453845069919541e-05 -1.3867602639753797e-08 0.0000000000000000e+00  5.3581712656560684e-05 -1.6448883747089523e-06 0.0000000000000000e+00  5.4415178641296092e-05 -4.0983097393752502e-08 0.0000000000000000e+00  -2.4108704242340982e-19 9.5075721432520486e-20 0.0000000000000000e+00  2.2349234514749746e-20 -2.1610937138974402e-19 0.0000000000000000e+00  3.0957789470138070e-20 2.3153546729293958e-19 0.0000000000000000e+00  -2.6313627637640118e-19 4.1186547606741058e-20 0.0000000000000000e+00  5.3889238671124915e-05 -5.2150326945631444e-07 0.0000000000000000e+00  3.3493234949238060e-19 -9.9193608407669906e-22 0.0000000000000000e+00  5.3772484968951912e-05 3.1929872683492208e-06 0.0000000000000000e+00  5.4352523007527488e-05 1.8759496561145652e-09 0.0000000000000000e+00  5.4376890087742304e-05 4.4578749265180480e-09 0.0000000000000000e+00  5.4425505733854258e-05 -2.3554161945800809e-08 0.0000000000000000e+00  5.3830308388954840e-05 9.9683902383322200e-07 0.0000000000000000e+00  5.4419416294241946e-05 -1.1009648330116717e-08 0.0000000000000000e+00  3.5002660429999086e-19 -8.1540221695116513e-23 0.0000000000000000e+00  5.4377846074241739e-05 1.6731825690945256e-09 0.0000000000000000e+00  4.4176168287440763e-19 6.5532913335628743e-21 0.0000000000000000e+00  5.4468079375827343e-05 -4.1420801388537484e-08 0.0000000000000000e+00  2.6125704135387982e-05 2.1630728857144440e-05 0.0000000000000000e+00  -9.8628955444139267e-19 -9.5454845666184413e-04 0.0000000000000000e+00  -1.6070843813588572e-18 9.5454845666184467e-04 0.0000000000000000e+00  2.6882325275686300e-05 -2.6129401554556977e-05 0.0000000000000000e+00  5.4360922805384503e-05 -6.7064063322244091e-08 0.0000000000000000e+00  5.4401809457966858e-05 4.8845497908564274e-08 0.0000000000000000e+00  3.7638765946048909e-19 3.2533034720100267e-21 0.0000000000000000e+00  5.4397221056208502e-05 -1.6828271357380787e-08 0.0000000000000000e+00  4.0405723448303455e-19 2.4922044017390020e-21 0.0000000000000000e+00  5.4407737030658905e-05 -1.7236544223234148e-08 0.0000000000000000e+00  4.1953368231702259e-19 8.5743020670437856e-22 0.0000000000000000e+00  3.7361783312751546e-19 -4.4789691752947028e-23 0.0000000000000000e+00  4.1909560603414041e-19 2.1263810025657380e-21 0.0000000000000000e+00  5.4425281092303766e-05 1.6854888338614045e-08 0.0000000000000000e+00  3.6396034510837033e-19 1.2750901873111830e-21 0.0000000000000000e+00  4.0273206091110758e-19 9.9831719557715999e-22 0.0000000000000000e+00  5.4390757721610695e-05 4.5063172679049656e-09 0.0000000000000000e+00  5.4443934382289776e-05 8.7192512113488477e-09 0.0000000000000000e+00  4.0786799590292891e-19 1.9852148055287709e-22 0.0000000000000000e+00  5.4433609564763674e-05 3.7331103613178971e-08 0.0000000000000000e+00  4.1816827018703879e-19 4.4459977344874465e-21 0.0000000000000000e+00  5.4458704675469207e-05 -6.9205101987766557e-08 0.0000000000000000e+00  3.4864407833984841e-19 1.0566395154426979e-22 0.0000000000000000e+00  5.4344590067766736e-05 3.6978372379515006e-08 0.0000000000000000e+00  4.0114932907289856e-19 7.0426497379371230e-23 0.0000000000000000e+00  3.8616215214435175e-19 3.6375473890676846e-21 0.0000000000000000e+00  4.0318829192927561e-19 6.6538602012423711e-21 0.0000000000000000e+00  4.1201477955672977e-19 -2.5953259965594258e-21 0.0000000000000000e+00  5.4436861283990449e-05 4.1166719449310871e-08 0.0000000000000000e+00  5.4449705220407238e-05 6.4352305814370418e-08 0.0000000000000000e+00  5.4433765017150220e-05 6.8085382243926009e-09 0.0000000000000000e+00  -1.0500444267021655e-05 -5.9462358748535606e-05 0.0000000000000000e+00  7.5731009979787596e-20 -7.6155376068225008e-19 0.0000000000000000e+00  5.4596502966672641e-05 -4.3228724118046451e-07 0.0000000000000000e+00  5.4502989979581643e-05 -1.4160446310717237e-07 0.0000000000000000e+00  5.3814624829307865e-05 1.9047779207037267e-07 0.0000000000000000e+00  5.4304532855305568e-05 -5.8472941000583283e-08 0.0000000000000000e+00  9.2305814474211282e-06 4.9174307375435733e-05 0.0000000000000000e+00  5.4351226811512302e-05 -5.9798199526514099e-11 0.0000000000000000e+00  5.4466912884476437e-05 3.5335332234898623e-10 0.0000000000000000e+00  1.5294727983678727e-19 4.4088446657405885e-19 0.0000000000000000e+00  -9.3820040027305939e-06 5.2410662426756502e-05 0.0000000000000000e+00  5.4343819948563512e-05 -3.7432534581311319e-08 0.0000000000000000e+00  9.1098499656011150e-06 -5.5516909245268210e-05 0.0000000000000000e+00  5.4437587567805785e-05 -8.7837640944425692e-09 0.0000000000000000e+00  3.4794233650823092e-19 -2.9313632160779058e-21 0.0000000000000000e+00  5.4332810042791335e-05 -1.6681396499097214e-07 0.0000000000000000e+00  5.4382508662390592e-05 2.1210058212276455e-09 0.0000000000000000e+00  5.4359955518299005e-05 2.5144651717492100e-07 0.0000000000000000e+00  5.4450936127594627e-05 -1.2032281114474524e-08 0.0000000000000000e+00  5.4427346420480205e-05 -6.4378637737993711e-08 0.0000000000000000e+00  5.4203684031472722e-05 -9.8456727720717102e-06 0.0000000000000000e+00  4.0423427198426153e-19 -5.4817215937209859e-21 0.0000000000000000e+00  5.4328032922124295e-05 -1.8827642894444938e-08 0.0000000000000000e+00  5.6741202507699726e-21 -5.0229221509619794e-19 0.0000000000000000e+00  5.0308481464463073e-21 4.3772964467330983e-19 0.0000000000000000e+00  -1.1505577823833160e-04 -1.3357670841369841e-04 0.0000000000000000e+00  -9.4594953407871690e-05 1.1109900084187261e-04 0.0000000000000000e+00  3.7542799706939522e-19 1.1197533009882285e-22 0.0000000000000000e+00  4.3316228859542613e-19 6.1818204011970001e-21 0.0000000000000000e+00  3.4707014692986267e-19 5.9035258018940837e-22 0.0000000000000000e+00  5.4330863302536144e-05 6.6128070977263678e-08 0.0000000000000000e+00  5.4353467977880974e-05 4.0265096141314630e-08 0.0000000000000000e+00  4.9444051808476349e-05 -1.4233093722092243e-20 0.0000000000000000e+00  3.6728308115985134e-19 -1.2561591491057416e-20 0.0000000000000000e+00  5.4353847154086796e-05 1.6147188719151221e-08 0.0000000000000000e+00  3.8458981471583606e-19 2.5089555292248716e-21 0.0000000000000000e+00  3.7549578216986645e-19 -7.9378703951350438e-22 0.0000000000000000e+00  5.4405995602536250e-05 -6.7266236253724496e-09 0.0000000000000000e+00  5.4465450611154789e-05 5.6693596526337735e-09 0.0000000000000000e+00  4.9387727615077341e-05 1.6884115312646257e-20 0.0000000000000000e+00  3.9322011681309098e-19 -4.8248114704044252e-21 0.0000000000000000e+00  2.0243225689047823e-05 -1.6271489740669199e-06 0.0000000000000000e+00  4.0503004185107890e-19 1.3314705109552513e-20 0.0000000000000000e+00  4.6232201531319945e-19 -1.6761233979570039e-20 0.0000000000000000e+00  5.4408543648068076e-05 -2.4494377099927083e-08 0.0000000000000000e+00  5.4237188922535055e-05 -4.9307927758770540e-08 0.0000000000000000e+00  5.4480185604154191e-05 3.6367053222279362e-10 0.0000000000000000e+00  5.4377540656416377e-05 3.4053286579698568e-08 0.0000000000000000e+00  3.7972299278984385e-19 4.0800162685659885e-22 0.0000000000000000e+00  4.6067812155191669e-19 1.0673927664590526e-21 0.0000000000000000e+00  3.7964976348449039e-19 -7.3346304551196953e-21 0.0000000000000000e+00  3.6246892994020573e-19 6.8020626217466245e-21 0.0000000000000000e+00  5.4366777782659663e-05 -8.9546329765959207e-09 0.0000000000000000e+00  5.4373274508429045e-05 2.1439947350630991e-08 0.0000000000000000e+00  5.4360980066278507e-05 -1.8220259552664163e-08 0.0000000000000000e+00  4.9471236564272180e-05 1.4945261617957146e-05 0.0000000000000000e+00  5.4436932519244249e-05 -1.5658074926699937e-08 0.0000000000000000e+00  5.4348287686025977e-05 1.7838164160011482e-08 0.0000000000000000e+00  5.4423654804487356e-05 1.6316339297140257e-08 0.0000000000000000e+00  5.4120157160173381e-05 6.0917907187649188e-08 0.0000000000000000e+00  5.4398861573046241e-05 6.0838485023564463e-09 0.0000000000000000e+00  5.4226874787209907e-05 1.4821900622123970e-08 0.0000000000000000e+00  5.4347650653033127e-05 1.4215505656825828e-08 0.0000000000000000e+00  5.4120514169480298e-05 4.0932079671121582e-09 0.0000000000000000e+00  5.4415836494107427e-05 -5.2203740321326202e-08 0.0000000000000000e+00  5.4253674372874191e-05 3.2278438453200181e-08 0.0000000000000000e+00  5.4203497731733402e-05 -2.0146254693264196e-08 0.0000000000000000e+00  5.4328297708488083e-05 2.2647957440915978e-08 0.0000000000000000e+00  5.4404930071080783e-05 6.8275431160446764e-08 0.0000000000000000e+00  5.4038317026071797e-05 -6.2908523297127936e-08 0.0000000000000000e+00  5.4033172115637304e-05 5.8695902795286388e-08 0.0000000000000000e+00  5.4121923657439297e-05 -8.1444681191491190e-09 0.0000000000000000e+00  5.4018056503053928e-05 -3.6196908912896013e-08 0.0000000000000000e+00  5.4148530999850695e-05 -3.2856322456777846e-08 0.0000000000000000e+00  5.4412447441752716e-05 -1.4844163342738784e-08 0.0000000000000000e+00  5.4443677903863524e-05 -1.0073293037185360e-08 0.0000000000000000e+00  5.4467565511638425e-05 1.2799319973443223e-08 0.0000000000000000e+00  5.4203073746541828e-05 -5.1436643982643433e-08 0.0000000000000000e+00  4.9860691693565082e-05 -2.8919026856653085e-06 0.0000000000000000e+00  5.5633638322686735e-05 -1.6051613939045938e-06 0.0000000000000000e+00  5.4081488826830203e-05 -4.7854108209664996e-07 0.0000000000000000e+00  5.4432088047238408e-05 -1.6617307631784790e-08 0.0000000000000000e+00  5.4461083974507584e-05 -3.6550882611593154e-08 0.0000000000000000e+00  5.4462460330873180e-05 -8.6080751495891080e-09 0.0000000000000000e+00  3.3217115146570038e-20 -1.3347516588576089e-19 0.0000000000000000e+00  5.0109605791325241e-20 1.1919761106560143e-19 0.0000000000000000e+00  5.4433343493922506e-05 2.6194572993572453e-08 0.0000000000000000e+00  5.4420843846966652e-05 -7.6175771996542941e-08 0.0000000000000000e+00  5.4470728531130719e-05 1.0459182065906374e-08 0.0000000000000000e+00  5.4046405831647541e-05 2.5645949480699526e-08 0.0000000000000000e+00  5.4155119544056043e-05 2.8807499892176522e-08 0.0000000000000000e+00  5.4452269518697832e-05 -7.3328667320168127e-07 0.0000000000000000e+00  5.3758960640584125e-05 -3.3808009283791250e-06 0.0000000000000000e+00  5.3041042279751670e-05 5.8227915622956727e-08 0.0000000000000000e+00  5.4080840511637711e-05 4.7147369011455089e-08 0.0000000000000000e+00  5.4093683490144126e-05 -4.9145130401262279e-09 0.0000000000000000e+00  5.2025358515166499e-05 3.5902771626661653e-08 0.0000000000000000e+00  5.4311632162529371e-05 7.5295629031503112e-07 0.0000000000000000e+00  5.4420130208169541e-05 -7.4764069250793610e-09 0.0000000000000000e+00  5.3885094583698522e-05 6.4123065405750840e-08 0.0000000000000000e+00  6.4252650325984408e-07 -6.3401304224977185e-05 0.0000000000000000e+00  5.4429343076463672e-05 3.3699469665118596e-08 0.0000000000000000e+00  7.9982978360185618e-07 5.6023998461942075e-05 0.0000000000000000e+00  -2.3242321272398768e-18 -2.2551986636288721e-18 0.0000000000000000e+00  -4.1754085506298735e-20 3.3766347409441588e-19 0.0000000000000000e+00  2.2246383350024686e-20 3.7457234392330600e-19 0.0000000000000000e+00  1.9896106900056740e-20 -3.6079787576821866e-19 0.0000000000000000e+00  -4.3646705630433051e-20 -3.9573013104925964e-19 0.0000000000000000e+00  -2.2176853165843193e-18 1.8940772448270332e-18 0.0000000000000000e+00  5.4248431473881729e-05 -3.7632847506930542e-08 0.0000000000000000e+00  5.2343638468276177e-05 7.3031249087867377e-08 0.0000000000000000e+00  5.2311725711843532e-05 -1.1805741976713015e-07 0.0000000000000000e+00  5.2272913089271893e-05 1.6365642346449652e-08 0.0000000000000000e+00  5.2299538511638773e-05 -7.9680910568915881e-09 0.0000000000000000e+00  5.2254310092996953e-05 5.9555347375177601e-08 0.0000000000000000e+00  5.3966822553364815e-05 7.1728501740767777e-08 0.0000000000000000e+00  5.4201496086412961e-05 7.8946173022063303e-07 0.0000000000000000e+00  5.3984915527872640e-05 -8.7401412347576094e-09 0.0000000000000000e+00  5.4365268619239515e-05 -2.5827877262026948e-08 0.0000000000000000e+00  5.4441540560136227e-05 1.5288015296193243e-08 0.0000000000000000e+00  5.4459282256566889e-05 -1.1980977936662476e-08 0.0000000000000000e+00  -8.8214034672279221e-06 7.9102319751386599e-05 0.0000000000000000e+00  -1.8125357658605291e-05 -8.1575819076797466e-05 0.0000000000000000e+00  5.2422232671365438e-05 -1.7851934573827298e-07 0.0000000000000000e+00  5.3874365558605392e-05 6.7797700971609848e-08 0.0000000000000000e+00  5.4465290149270910e-05 -1.0938418505324953e-08 0.0000000000000000e+00  5.4453657121419949e-05 -1.2402669026719921e-08 0.0000000000000000e+00  3.8255366919078136e-19 4.5437904345140600e-21 0.0000000000000000e+00  4.8235315695321957e-05 3.6988808821567233e-06 0.0000000000000000e+00  2.1860488304050509e-04 2.5215569874841417e-04 0.0000000000000000e+00  2.1893030725258928e-04 -2.6722649437664695e-04 0.0000000000000000e+00  5.4485443171872793e-05 -8.7066340276659165e-09 0.0000000000000000e+00  5.1877726422184732e-05 5.1742279740839627e-08 0.0000000000000000e+00  3.5717617924280179e-19 1.0339747176142928e-21 0.0000000000000000e+00  5.2115654574739543e-05 -8.5076856481031277e-08 0.0000000000000000e+00  5.4486016800784484e-05 9.5982264441603112e-09 0.0000000000000000e+00  5.3743131288075548e-05 4.3242902239832139e-06 0.0000000000000000e+00  5.4392419826323659e-05 2.1958738427941482e-09 0.0000000000000000e+00  3.9835140475693135e-19 -3.9077740743168858e-21 0.0000000000000000e+00  5.4457065774005570e-05 2.1860271352608396e-08 0.0000000000000000e+00  5.4436212558911558e-05 -2.4266211033924922e-08 0.0000000000000000e+00  5.3987947871431908e-05 -1.8673628208871968e-08 0.0000000000000000e+00  5.4134060738088862e-05 1.0373269051139460e-08 0.0000000000000000e+00  5.3998506371009712e-05 -4.0016335193144691e-08 0.0000000000000000e+00  3.8606014634295340e-19 3.1823668915830389e-21 0.0000000000000000e+00  5.4165571638841765e-05 -1.5978077877546158e-08 0.0000000000000000e+00  5.4462721705512580e-05 4.3389514145536126e-08 0.0000000000000000e+00  5.2391364713109858e-05 1.2153576784514564e-07 0.0000000000000000e+00  5.4454166852178677e-05 -2.3332089005094511e-09 0.0000000000000000e+00  5.4448069709293565e-05 -2.4841589705759336e-07 0.0000000000000000e+00  5.4413477711620054e-05 7.6540873343892646e-09 0.0000000000000000e+00  5.4420524456678272e-05 -1.2700189860991635e-08 0.0000000000000000e+00  5.2521693939168072e-05 -8.2550859347419553e-07 0.0000000000000000e+00  5.4130392427938952e-05 3.2702296192649986e-08 0.0000000000000000e+00  5.4108646673503880e-05 -4.8812489163489748e-08 0.0000000000000000e+00  5.4054764523512838e-05 -3.4515360108186301e-08 0.0000000000000000e+00  5.4161862893172509e-05 -8.1156106403184443e-08 0.0000000000000000e+00  5.4409891967006908e-05 1.7446282159216757e-08 0.0000000000000000e+00  4.1588569854069173e-19 -4.6808060889577352e-21 0.0000000000000000e+00  5.0177021564516798e-05 -2.8804601042756825e-05 0.0000000000000000e+00  2.9606386889156516e-05 -5.4295681637059250e-05 0.0000000000000000e+00  1.2647287575262470e-05 -4.0753122382882367e-05 0.0000000000000000e+00  3.8858237336068793e-05 -1.3647530232565293e-05 0.0000000000000000e+00  5.4470853256360382e-05 2.8769070029037100e-09 0.0000000000000000e+00  5.4426250901184998e-05 -2.8729324677500083e-08 0.0000000000000000e+00  5.4419495579424064e-05 4.6475821234800598e-09 0.0000000000000000e+00  5.4418282840511001e-05 -1.0330928608676817e-08 0.0000000000000000e+00  5.4353560113892821e-05 -9.9084304499647749e-08 0.0000000000000000e+00  5.4098618076113933e-05 1.2031934151421544e-07 0.0000000000000000e+00  4.3234963404060000e-19 7.2379961055904019e-22 0.0000000000000000e+00  5.4060950593567756e-05 7.5170022743967505e-08 0.0000000000000000e+00  5.4420154128666377e-05 -1.6100823958560537e-08 0.0000000000000000e+00  5.4418480073730409e-05 5.4021522027100611e-10 0.0000000000000000e+00  5.4047965611539057e-05 4.8338502888135817e-08 0.00000000000