<?xml version="1.0"?>
<VTKFile type="UnstructuredGrid"  version="0.1"  >
<UnstructuredGrid>
<Piece  NumberOfPoints="1079" NumberOfCells="1944">
<Points>
<DataArray  type="Float64"  NumberOfComponents="3"  format="ascii">0.08500000000000001 0.02 0  0.005 0.02 0  0.005 0.03 0  0 0.03 0  0 0 0  0.005 0 0  0.005 0.01 0  0.08500000000000001 0.01 0  0 0.015 0  0 0.0075 0  0 0.0225 0  0.04500000000000001 0.02 0  0.04500000000000001 0.01 0  0.025 0.01 0  0.025 0.02 0  0.065 0.02 0  0.065 0.01 0  0.035 0.02 0  0.035 0.01 0  0.07500000000000001 0.02 0  0.07500000000000001 0.01 0  0.015 0.02 0  0.015 0.01 0  0.05500000000000001 0.01 0  0.05500000000000001 0.02 0  0.07000000000000001 0.01 0  0.07000000000000001 0.02 0  0.05 0.01 0  0.03 0.01 0  0.03 0.02 0  0.04000000000000001 0.01 0  0.01 0.01 0  0.02 0.02 0  0.06 0.015 0  0.08500000000000001 0.015 0  0.05 0.02 0  0.07250000000000001 0.015 0  0.04000000000000001 0.02 0  0.03750000000000001 0.015 0  0.0525 0.015 0  0.02 0.01 0  0.01 0.02 0  0.0275 0.015 0  0.0125 0.015 0  0.08000000000000002 0.01 0  0.08000000000000002 0.02 0  0.0325 0.014375 0  0.04291666666666667 0.015 0  0.065 0.015 0  0.005 0.005 0  0.005 0.015 0  0.02208333333333334 0.015 0  0.07791666666666668 0.015 0  0.005 0.025 0  0.06 0.01 0  0.06 0.02 0  0.01729166666666667 0.01572916666666667 0  0.04770833333333334 0.01427083333333334 0  0.06875000000000001 0.01625 0  0.008750000000000001 0.01625 0  0.05625000000000001 0.01625 0  0 0.00375 0  0 0.01875 0  0 0.01125 0  0 0.02625 0  0.08145833333333334 0.01354166666666667 0  0.0675 0.01 0  0.0075 0.0125 0  0.0625 0.0175 0  0.0575 0.0125 0  0.0625 0.0125 0  0.08207465277777778 0.01707465277777778 0  0.06767857142857144 0.01321428571428571 0  0.0175 0.01 0  0.01875 0.01291382575757576 0  0.0475 0.02 0  0.04564168086314595 0.01679860519591141 0  0.00296875 0.0125 0  0.0025 0.03 0  0.0025 0 0  0.00296875 0.0175 0  0.01521990740740741 0.0132349537037037 0  0.0497800925925926 0.0167650462962963 0  0.0325 0.02 0  0.03474264705882353 0.01674632352941176 0  0.03750000000000001 0.02 0  0.03025735294117647 0.01674632352941176 0  0.0275 0.02 0  0.0525 0.02 0  0.0125 0.01 0  0.04020833333333334 0.01322916666666667 0  0.03750000000000001 0.01 0  0.0225 0.02 0  0.02479166666666667 0.01677083333333333 0  0.07520833333333335 0.01322916666666667 0  0.07250000000000001 0.01 0  0.07520833333333335 0.01677083333333334 0  0.07250000000000001 0.02 0  0.04020833333333334 0.01677083333333333 0  0.0225 0.01 0  0.02375 0.01262152777777778 0  0.04250000000000001 0.02 0  0.04250000000000001 0.01 0  0.07750000000000001 0.01 0  0.07750000000000001 0.02 0  0.05036151960784314 0.01294424019607843 0  0.0705560064935065 0.01284699675324675 0  0.05458333333333334 0.01291666666666666 0  0.0021875 0.024375 0  0.005 0.0275 0  0.01125 0.0175 0  0.01463848039215686 0.01705575980392157 0  0.01 0.01375 0  0.03625 0.0125 0  0.0021875 0.009375 0  0.05375000000000001 0.0175 0  0.07125000000000001 0.0175 0  0.005 0.0025 0  0.0021875 0.005625 0  0.02655220103578155 0.01234889948210923 0  0.002187499999999999 0.020625 0  0.02979166666666667 0.01302083333333333 0  0.0525 0.01 0  0.07895833333333334 0.0125 0  0.01994277885235332 0.01704213007736944 0  0.07934656179076068 0.01733823814273861 0  0.04505722114764669 0.01295786992263056 0  0.06625 0.0175 0  0.006250000000000001 0.0175 0  0.05750000000000001 0.02 0  0.05875000000000001 0.0175 0  0.005 0.0225 0  0.005 0.0075 0  0.002375 0.027375 0  0.002375 0.002625000000000001 0  0.0475 0.01 0  0.0175 0.02 0  0.0325 0.01 0  0.03375 0.0121875 0  0.04261299435028249 0.01749205508474576 0  0.08500000000000001 0.0125 0  0.08250000000000002 0.01 0  0.02121963399965531 0.01224824108143494 0  0.0675 0.02 0  0.0125 0.02 0  0.02720152243589744 0.0175 0  0.03715165441176471 0.0175 0  0.08500000000000001 0.0175 0  0.0275 0.01 0  0.0025 0.0149560546875 0  0.0075 0.01 0  0.0075 0.02 0  0.06526785714285716 0.0125 0  0.01281031447005516 0.0125 0  0.0625 0.015 0  0.06 0.0125 0  0.05750000000000001 0.01 0  0.0625 0.02 0  0.0625 0.01 0  0.08250000000000002 0.02 0  0.04260103740101855 0.01252623201412851 0  0.02240052247582197 0.01750164767101344 0  0.07293583459427785 0.01238479732953041 0  0.005234374999999999 0.012265625 0  0.03528131980640358 0.01454684009679821 0  0.0325 0.01760027210036557 0  0.02532593822924343 0.01428227733767297 0  0.08009952069819683 0.01527145502895417 0  0.01987282359856536 0.01482587683689801 0  0.04828232595121382 0.01210233572595705 0  0.01671767404878618 0.01789766427404295 0  0.05125 0.01829007549029352 0  0.05247215456215357 0.01288882122882024 0  0.07338729919678716 0.01799385040160642 0  0.03838729919678716 0.01200614959839357 0  0.07717482110586968 0.01780301674207099 0  0.04771860040890012 0.01773306039388322 0  0.03125 0.01160380747126437 0  0.06875000000000001 0.01154265873015873 0  0.07625000000000001 0.01154065860215054 0  0.01625 0.01153997817696946 0  0.068125 0.018125 0  0.05437500000000001 0.015625 0  0.066875 0.015625 0  0.07039794950204951 0.01494384850614853 0  0.05687500000000001 0.018125 0  0.006875 0.015625 0  0.008749999999999999 0.01833333333333333 0  0.010625 0.015625 0  0.05625 0.01416666666666667 0  0.05812500000000001 0.015625 0  0.0449088595298192 0.01494528408816316 0  0 0.016875 0  0 0.013125 0  0.04962452342047931 0.01478673066448802 0  0.0153754765795207 0.01521326933551198 0  0.0771774565913315 0.01322498191305479 0  0.01857756431135545 0.01840228599899994 0  0.04642243568864456 0.01159771400100006 0  0.08125000000000002 0.01155637254901961 0  0.08317650804863432 0.0118234919513657 0  0.08288217288011697 0.01511353252923977 0  0.02837253504384828 0.0117177464035174 0  0.03896057962520807 0.01831163685754031 0  0.01125 0.0114244162490927 0  0.00935910490099115 0.0119067901980177 0  0.02946078431372549 0.01495404411764706 0  0.02875 0.0185829434466942 0  0.002968749999999999 0.0225 0  0.064375 0.016875 0  0.00296875 0.0075 0  0 0.001875 0  0 0.005625 0  0 0.009375 0  0 0.020625 0  0 0.024375 0  0 0.028125 0  0.06062500000000001 0.01812500000000001 0  0.008303571428571429 0.01446428571428572 0  0.01375 0.01865917058160413 0  0.05137790313978056 0.01143372888932909 0  0.04125000000000001 0.01131513063942604 0  0.04101690263896279 0.01844430285842771 0  0.02399563533148224 0.01844349395710867 0  0.08125000000000002 0.01868815426145731 0  0.05354684380692146 0.01145463537600848 0  0.01699195823639423 0.01315138909884649 0  0.07598357371794873 0.015 0  0.04098357371794872 0.015 0  0.003744047619047619 0.00375 0  0.003344630281690141 0.02580853873239437 0  0.04625 0.0187354532243972 0  0.06388392857142858 0.01138392857142858 0  0.06375 0.01375 0  0.05875 0.01375 0  0.06375 0.02 0  0.00622802734375 0.01372802734375 0  0.003630681818181818 0.001369318181818182 0  0.003630681818181818 0.02863068181818182 0  0.06125 0.01625 0  0.06125 0.01125 0  0.05625000000000001 0.01 0  0.05875 0.01125 0  0.06125 0.01375 0  0.08337864763241221 0.0183786476324122 0  0.05213634138653413 0.01674432930673294 0  0.04375000000000001 0.01 0  0.07424178685897437 0.01529258578431373 0  0.03924178685897436 0.01529258578431372 0  0.03410139294454583 0.01843406022904556 0  0.03089860705545417 0.01843406022904556 0  0.02094160484316717 0.01850229584291991 0  0.04375000000000001 0.02 0  0.04437042160883325 0.01820701498672512 0  0.04816311705429156 0.01600061344661149 0  0.07151224904251052 0.0114127410511319 0  0.04395528506193162 0.01639387970349481 0  0.0128750358694518 0.0167500179347259 0  0.02855808448399799 0.01642839899839741 0  0.02812690373330794 0.01340955081400569 0  0.08358500641945087 0.01351822349116885 0  0.05590277777777778 0.01173611111111111 0  0.06683110430364615 0.01164926404662283 0  0.02573206694914602 0.01842532451809762 0  0.01438126661842046 0.01166701193099454 0  0.02384283211216029 0.01526549696571563 0  0.03625 0.02 0  0.004609375000000001 0.0182421875 0  0.003398437500000001 0.01943359375 0  0.001728307845744682 0.01894718251329787 0  0.004377805359085963 0.01656966216675735 0  0.04649673309852075 0.0153889662370871 0  0.03615513600614297 0.01592654988586041 0  0.03316985071935832 0.01598763605018279 0  0.03110111603888768 0.01529816275177977 0  0.01370614113484869 0.0138804542047638 0  0.04930041102671841 0.01842260568883502 0  0.07875000000000001 0.02 0  0.0745395359848485 0.01165101111925709 0  0.03860755698543604 0.01373741558556884 0  0.02605038706571737 0.01573944002207753 0  0.07559826163500957 0.01841729376139847 0  0.04437500000000001 0.01149157931286774 0  0.06874116707361365 0.01454618473032123 0  0.003761917372881356 0.0239307468220339 0  0.003984374999999999 0.01125 0  0.003768503289473684 0.01392539576480263 0  0.001796875 0.0111328125 0  0.003761917372881356 0.008930746822033899 0  0.005 0.00625 0  0.003761917372881355 0.0210692531779661 0  0.06633928571428571 0.01410714285714285 0  0.006484375 0.01125 0  0.08364120589325512 0.01657288979763549 0  0.03576267476503373 0.0184116442851204 0  0.07370875846579374 0.0137848203678562 0  0.06964285714285715 0.01758928571428571 0  0.05520833333333334 0.01833333333333333 0  0.06491071428571429 0.01839285714285714 0  0.0510098951944636 0.01559941474766356 0  0.01786087179886325 0.0115702210443714 0  0.01972197383235524 0.01160576093166696 0  0.01804697593127788 0.01433503795474974 0  0.001644074528704677 0.01642892723865279 0  0.00125 0.03 0  0.001497685185185185 0.001267746913580247 0  0.07315451164202422 0.01643443118912983 0  0.001233906745910645 0.0140625 0  0.01162635071030191 0.01362229857939618 0  0.01528023503083844 0.01845923557506155 0  0.06625 0.02 0  0.07695012019230771 0.01624387078484555 0  0.03139091092855769 0.01320776147621796 0  0.03857339107781042 0.01675295051810485 0  0.001754993120977522 0.02590789105493891 0  0.002288757784711197 0.00412546923654445 0  0.07914382119690884 0.01404430049871201 0  0.001391810103286306 0.01257390899021902 0  0.0419501201923077 0.01614675005432421 0  0.001484375 0.007018229166666667 0  0.001484375 0.02201822916666666 0  0.048
[...]
<PointData  Vectors="velocity"> 
<DataArray  type="Float64"  Name="velocity"  NumberOfComponents="3" format="ascii">2.3051847512257345e-06 1.7071378194603857e-20 0.0000000000000000e+00  4.6987038681504062e-20 -5.4146968385352300e-20 0.0000000000000000e+00  2.1403298349809649e-18 -1.1233240329780351e-04 0.0000000000000000e+00  -2.5022213529729168e-18 -1.1233240329780327e-04 0.0000000000000000e+00  -2.2747466845208357e-18 1.1233240329780330e-04 0.0000000000000000e+00  2.1713491079517073e-18 1.1233240329780323e-04 0.0000000000000000e+00  4.6234433793910387e-20 4.3472437705074770e-20 0.0000000000000000e+00  2.3674641760600414e-06 -1.7653094776828517e-20 0.0000000000000000e+00  5.2530904054735907e-21 -2.4623861275657456e-22 0.0000000000000000e+00  -5.9532604265095951e-22 4.2088357151726974e-20 0.0000000000000000e+00  2.3032369258453882e-22 -4.7826445024112740e-20 0.0000000000000000e+00  4.4262825988819164e-20 -1.6649416801220552e-22 0.0000000000000000e+00  3.8543173952538954e-20 2.3139754497488659e-22 0.0000000000000000e+00  4.5398065283962162e-20 1.3236577049002126e-22 0.0000000000000000e+00  3.7001813787482170e-20 -1.5662061007738102e-22 0.0000000000000000e+00  4.2893588498476755e-20 1.3880622809900758e-22 0.0000000000000000e+00  4.0930328738756225e-20 5.6180991921201146e-23 0.0000000000000000e+00  3.3743411799655379e-20 -7.2900823665460371e-23 0.0000000000000000e+00  4.8502547945747854e-20 -5.3256954639555792e-23 0.0000000000000000e+00  4.2839760843008504e-20 2.7032083178786971e-22 0.0000000000000000e+00  3.8081674166806137e-20 1.6107082280300093e-22 0.0000000000000000e+00  3.7582359317005063e-20 -1.0783904221459304e-22 0.0000000000000000e+00  3.6343706231549329e-20 -8.9316564084500672e-23 0.0000000000000000e+00  4.2161408736080008e-20 -4.7898039946565304e-22 0.0000000000000000e+00  4.0967259541943015e-20 1.7483885909978666e-22 0.0000000000000000e+00  4.0334595709067214e-20 6.9143725782742240e-23 0.0000000000000000e+00  4.5930336488254379e-20 -1.5621243672763039e-22 0.0000000000000000e+00  4.4388173888254842e-20 1.3817423372849747e-22 0.0000000000000000e+00  4.3668071700608091e-20 3.2216597381009013e-23 0.0000000000000000e+00  3.5632384216275541e-20 -9.1043645993253698e-23 0.0000000000000000e+00  3.9614408757913148e-20 1.3708722141770786e-22 0.0000000000000000e+00  4.0417583078622919e-20 2.2784051089886144e-22 0.0000000000000000e+00  3.7310531338591926e-20 -7.8527111744514937e-23 0.0000000000000000e+00  5.8804054217045617e-06 -8.5955206548911675e-10 0.0000000000000000e+00  5.6476631089352791e-06 1.2872599278985595e-23 0.0000000000000000e+00  3.7386083920520477e-20 2.3394979644329355e-23 0.0000000000000000e+00  5.8802970108401959e-06 1.9824156567492232e-09 0.0000000000000000e+00  4.2261645107885592e-20 -4.0812569602884302e-22 0.0000000000000000e+00  5.8754021626234253e-06 -2.8600524584064743e-09 0.0000000000000000e+00  5.8742800917735466e-06 -3.2003329782353788e-10 0.0000000000000000e+00  4.1303009115031891e-20 1.6364423974587401e-23 0.0000000000000000e+00  4.2382041915432970e-20 -8.1906084293805491e-22 0.0000000000000000e+00  5.8750378537084699e-06 -1.5262671665428041e-10 0.0000000000000000e+00  5.8627846172548345e-06 -2.2740327625707164e-08 0.0000000000000000e+00  3.5596480710454255e-20 -1.5606924326014453e-22 0.0000000000000000e+00  4.0505394402764670e-20 7.4524519722487899e-22 0.0000000000000000e+00  5.8736779790665946e-06 1.7231055283280353e-10 0.0000000000000000e+00  5.8796324416504593e-06 -5.7327503730659419e-10 0.0000000000000000e+00  5.8780466912423907e-06 -4.9465887522435183e-10 0.0000000000000000e+00  -3.1597851311931822e-21 5.3343144262032934e-20 0.0000000000000000e+00  4.4418775541841656e-06 -2.3144247553036022e-07 0.0000000000000000e+00  5.8727562000405393e-06 1.4376973940051513e-09 0.0000000000000000e+00  5.8712240896309813e-06 3.0225815207208209e-10 0.0000000000000000e+00  -4.5273216645254566e-21 -6.4427130733628253e-20 0.0000000000000000e+00  3.8774091213423527e-20 8.4565889039693241e-23 0.0000000000000000e+00  4.4432343523676247e-20 5.2399512521510458e-22 0.0000000000000000e+00  5.8755234474599566e-06 -2.0776141707291035e-09 0.0000000000000000e+00  5.8773985626209898e-06 1.5542993297234483e-09 0.0000000000000000e+00  5.8780910260901192e-06 -1.4995946159890919e-09 0.0000000000000000e+00  5.7876589804588220e-06 -1.8679010210482792e-07 0.0000000000000000e+00  5.8739114610848208e-06 -4.4190744131498865e-09 0.0000000000000000e+00  -2.6285299502242614e-20 7.8233278027020713e-21 0.0000000000000000e+00  2.3214873879757661e-21 -2.3121871303351850e-20 0.0000000000000000e+00  3.3297622395206642e-21 2.5054211013041973e-20 0.0000000000000000e+00  -3.0746901859199055e-20 7.5079644074788385e-21 0.0000000000000000e+00  5.8172528168183602e-06 -5.6200536734004579e-08 0.0000000000000000e+00  3.6256974107631073e-20 -1.0595437967036940e-22 0.0000000000000000e+00  5.7935974348605089e-06 3.3389944134455487e-07 0.0000000000000000e+00  5.8671415535712521e-06 1.6529212422602210e-10 0.0000000000000000e+00  5.8697667051320718e-06 4.9599497912594111e-10 0.0000000000000000e+00  5.8750253611604624e-06 -2.5216330172819353e-09 0.0000000000000000e+00  5.8109114955721051e-06 1.0746097775316040e-07 0.0000000000000000e+00  5.8743782961872697e-06 -1.1904509974296687e-09 0.0000000000000000e+00  3.9885936817641557e-20 -9.1093563478397169e-24 0.0000000000000000e+00  5.8696587421505850e-06 -9.6687884628852866e-11 0.0000000000000000e+00  4.7112481060514704e-20 6.9504605052939578e-22 0.0000000000000000e+00  5.8796235856276606e-06 -4.4793354789045305e-09 0.0000000000000000e+00  2.8105068942630506e-06 2.2930797493252893e-06 0.0000000000000000e+00  -1.2926542869593003e-19 -1.1233240329780388e-04 0.0000000000000000e+00  -2.1001736591494073e-19 1.1233240329780395e-04 0.0000000000000000e+00  2.9101529509448550e-06 -2.8615841990405727e-06 0.0000000000000000e+00  5.8673836091151635e-06 -8.2292158507670022e-09 0.0000000000000000e+00  5.8724853284508225e-06 5.2780715636330365e-09 0.0000000000000000e+00  3.9807594733918684e-20 3.6181016336655160e-22 0.0000000000000000e+00  5.8719810990519536e-06 -1.8116611049098919e-09 0.0000000000000000e+00  4.5646309567576966e-20 2.5577298398597886e-22 0.0000000000000000e+00  5.8731143402998696e-06 -1.8664131353716837e-09 0.0000000000000000e+00  4.4721026696116177e-20 8.8759236058669692e-23 0.0000000000000000e+00  4.0376047819648938e-20 -4.4204799392917182e-24 0.0000000000000000e+00  4.4383620549273339e-20 2.3576457036950541e-22 0.0000000000000000e+00  5.8750104913562397e-06 1.8177696105858289e-09 0.0000000000000000e+00  4.0129500259467278e-20 1.2561881418836949e-22 0.0000000000000000e+00  4.3380226878067000e-20 1.0852067986958456e-22 0.0000000000000000e+00  5.8713076837185051e-06 4.5045099799004623e-10 0.0000000000000000e+00  5.8770267749113504e-06 9.3633201119732457e-10 0.0000000000000000e+00  4.2850804685839343e-20 4.9160521944787471e-24 0.0000000000000000e+00  5.8759020575147920e-06 4.0317106655097247e-09 0.0000000000000000e+00  4.5773738421929498e-20 4.6749112990004128e-22 0.0000000000000000e+00  5.8786194109967306e-06 -7.4625919024689515e-09 0.0000000000000000e+00  3.7419127373544074e-20 1.7904169567223491e-23 0.0000000000000000e+00  5.8662340764767900e-06 3.9566462899417783e-09 0.0000000000000000e+00  4.4509546343762619e-20 -5.8688747816142697e-24 0.0000000000000000e+00  4.1169888389987583e-20 3.8995491614911087e-22 0.0000000000000000e+00  4.3639273673876399e-20 7.0722210777499613e-22 0.0000000000000000e+00  4.5619549338758701e-20 -2.7821233453563781e-22 0.0000000000000000e+00  5.8762685120949330e-06 4.4510920334227654e-09 0.0000000000000000e+00  5.8776428475139308e-06 6.9487193709089005e-09 0.0000000000000000e+00  5.8759283311593713e-06 7.2540009803072753e-10 0.0000000000000000e+00  -1.2296798943684983e-06 -6.4577096632748004e-06 0.0000000000000000e+00  8.5953779486744390e-21 -8.9928937136150406e-20 0.0000000000000000e+00  5.8968653951806613e-06 -4.9808980097567951e-08 0.0000000000000000e+00  5.8843039162199244e-06 -1.6394934795737867e-08 0.0000000000000000e+00  5.8062474966328004e-06 1.4510014486679855e-08 0.0000000000000000e+00  5.8619230109995149e-06 -6.2949930205602836e-09 0.0000000000000000e+00  9.8600151947351034e-07 5.2497316256249932e-06 0.0000000000000000e+00  5.8670357834320832e-06 -1.0279930273799926e-11 0.0000000000000000e+00  5.8795071931937278e-06 -2.5263275579608932e-12 0.0000000000000000e+00  1.6351271693077586e-20 4.9614982983492228e-20 0.0000000000000000e+00  -1.0847731131376479e-06 5.5812179915510176e-06 0.0000000000000000e+00  5.8662213357602051e-06 -4.0213509100452618e-09 0.0000000000000000e+00  9.8193493498467237e-07 -6.0492988780300411e-06 0.0000000000000000e+00  5.8763328998646283e-06 -9.7689835571319287e-10 0.0000000000000000e+00  3.9145670408959352e-20 -3.2643546840946579e-22 0.0000000000000000e+00  5.8649257753715031e-06 -1.7913883774600622e-08 0.0000000000000000e+00  5.8705400368606709e-06 4.4792796743656043e-11 0.0000000000000000e+00  5.8679657974486139e-06 2.7088548459883896e-08 0.0000000000000000e+00  5.8777798118411067e-06 -1.3077963696593163e-09 0.0000000000000000e+00  5.8752431506496253e-06 -6.9404726651867181e-09 0.0000000000000000e+00  5.8650274077700103e-06 -1.0813445553088418e-06 0.0000000000000000e+00  4.3676447670770075e-20 -5.8539376531104142e-22 0.0000000000000000e+00  5.8645570171526522e-06 -2.0910198110085320e-09 0.0000000000000000e+00  5.2082211914610900e-22 -5.3574604023291389e-20 0.0000000000000000e+00  4.5234675800570511e-22 4.7521876726203514e-20 0.0000000000000000e+00  -1.3451634115712749e-05 -1.4763280989445820e-05 0.0000000000000000e+00  -1.0942604453787451e-05 1.2129529437246321e-05 0.0000000000000000e+00  4.1149127757606126e-20 1.5125699831897440e-23 0.0000000000000000e+00  4.6077352664231285e-20 6.6349718466756433e-22 0.0000000000000000e+00  3.7553003818846222e-20 7.1650539952730674e-23 0.0000000000000000e+00  5.8648354903980165e-06 7.1490655946257565e-09 0.0000000000000000e+00  5.8672879654460357e-06 4.3139693208755620e-09 0.0000000000000000e+00  5.3374084630048372e-06 -1.3786491565890787e-21 0.0000000000000000e+00  3.5453019639735651e-20 -1.2274651583901281e-21 0.0000000000000000e+00  5.8671844029375794e-06 1.6540188179730937e-09 0.0000000000000000e+00  4.2342201280592438e-20 2.5609787066355702e-22 0.0000000000000000e+00  4.0310576615294483e-20 -7.8731594951747038e-23 0.0000000000000000e+00  5.8729535714925037e-06 -7.4791297437100449e-10 0.0000000000000000e+00  5.8793323563191669e-06 6.2901446364097298e-10 0.0000000000000000e+00  5.3313136496395183e-06 1.8955546126466285e-21 0.0000000000000000e+00  4.2044666888258634e-20 -5.1687492380220571e-22 0.0000000000000000e+00  2.1849133079749490e-06 -2.1387876690021013e-07 0.0000000000000000e+00  4.3724834063468743e-20 1.3561273722692375e-21 0.0000000000000000e+00  4.9756327036067438e-20 -2.0449888131174384e-21 0.0000000000000000e+00  5.8732075475323207e-06 -2.6313364514746404e-09 0.0000000000000000e+00  5.8527810494505363e-06 -7.0349542381912880e-09 0.0000000000000000e+00  5.8809384763035445e-06 4.0308145579079268e-11 0.0000000000000000e+00  5.8698418038630531e-06 3.7025650692174604e-09 0.0000000000000000e+00  4.4449601301395337e-20 4.0470228476280172e-23 0.0000000000000000e+00  4.8598607568175924e-20 1.1005249244783352e-22 0.0000000000000000e+00  4.0702285448873732e-20 -7.9049962445460639e-22 0.0000000000000000e+00  3.7826229880506794e-20 8.9458742697757496e-22 0.0000000000000000e+00  5.8687496285385608e-06 -9.4550263587036414e-10 0.0000000000000000e+00  5.8694786331538146e-06 2.2265138373091010e-09 0.0000000000000000e+00  5.8681009542239797e-06 -1.9399863970935120e-09 0.0000000000000000e+00  5.3214545816970023e-06 1.5868724634043940e-06 0.0000000000000000e+00  5.8762655780207246e-06 -1.6893686341746013e-09 0.0000000000000000e+00  5.8666713138984264e-06 1.9001195465438852e-09 0.0000000000000000e+00  5.8748225784807797e-06 1.7244622564779549e-09 0.0000000000000000e+00  5.8421445576979807e-06 6.5687534552918747e-09 0.0000000000000000e+00  5.8721503296274083e-06 4.0531351946109228e-10 0.0000000000000000e+00  5.8535711259694202e-06 1.6133768257081531e-09 0.0000000000000000e+00  5.8672099327792453e-06 1.0771813004519742e-09 0.0000000000000000e+00  5.8420880280083921e-06 4.2892867750096701e-10 0.0000000000000000e+00  5.8739852554929194e-06 -5.6376485670369430e-09 0.0000000000000000e+00  5.8564608643035216e-06 3.4385526253679220e-09 0.0000000000000000e+00  5.8510489403673375e-06 -2.1638756196430440e-09 0.0000000000000000e+00  5.8645146200383516e-06 2.4043158080422041e-09 0.0000000000000000e+00  5.8727986648539178e-06 7.3254940340678444e-09 0.0000000000000000e+00  5.8332170330048829e-06 -6.7911063761378579e-09 0.0000000000000000e+00  5.8327103692994786e-06 6.3526112635811311e-09 0.0000000000000000e+00  5.8422794784098693e-06 -9.0512032745084927e-10 0.0000000000000000e+00  5.8302866189933107e-06 -4.2321060036544775e-09 0.0000000000000000e+00  5.8451117461224126e-06 -3.5727696380514767e-09 0.0000000000000000e+00  5.8736220502623728e-06 -1.5991387970937753e-09 0.0000000000000000e+00  5.8769936332249659e-06 -1.0855025760629271e-09 0.0000000000000000e+00  5.8795725415237152e-06 1.3792324759061021e-09 0.0000000000000000e+00  5.8510683972808416e-06 -5.5426901304791704e-09 0.0000000000000000e+00  5.3849379121414776e-06 -3.2973982228500925e-07 0.0000000000000000e+00  6.0147877641297194e-06 -1.7838921227545104e-07 0.0000000000000000e+00  5.8388969250950649e-06 -5.7073031790107136e-08 0.0000000000000000e+00  5.8757412144520633e-06 -1.7921524354397797e-09 0.0000000000000000e+00  5.8788697681214783e-06 -3.9457245080263147e-09 0.0000000000000000e+00  5.8790217779836700e-06 -9.3130812373349847e-10 0.0000000000000000e+00  3.8108676623633438e-21 -1.4788441674842824e-20 0.0000000000000000e+00  5.0644661289726832e-21 1.2134743459591335e-20 0.0000000000000000e+00  5.8758829594491600e-06 2.8288993654420929e-09 0.0000000000000000e+00  5.8746077560558400e-06 -9.3326090750249037e-09 0.0000000000000000e+00  5.8799278579784060e-06 1.1432714698777891e-09 0.0000000000000000e+00  5.8344820401858812e-06 2.6153136299414836e-09 0.0000000000000000e+00  5.8458276398740236e-06 3.1459159936799296e-09 0.0000000000000000e+00  5.8779321804931099e-06 -7.9018221131033503e-08 0.0000000000000000e+00  5.8033728377577182e-06 -3.6475867625280509e-07 0.0000000000000000e+00  5.7258718900530564e-06 6.2696692169294586e-09 0.0000000000000000e+00  5.8377682630300239e-06 5.0937047258202387e-09 0.0000000000000000e+00  5.8392011204607298e-06 -5.0393897962263330e-10 0.0000000000000000e+00  5.6119782426295177e-06 2.4877080540803431e-09 0.0000000000000000e+00  5.8554492911903411e-06 7.7127579756121386e-08 0.0000000000000000e+00  5.8744535144546974e-06 -8.1828355565062285e-10 0.0000000000000000e+00  5.8166840668869690e-06 6.9023058926267348e-09 0.0000000000000000e+00  4.6568621181841457e-08 -6.9143304957489213e-06 0.0000000000000000e+00  5.8754583663227787e-06 3.6309166702422113e-09 0.0000000000000000e+00  6.6881766289221439e-08 5.9914509410482918e-06 0.0000000000000000e+00  -2.4255324154553777e-19 -2.5228442899282605e-19 0.0000000000000000e+00  -4.9923363105357181e-21 3.4946354173750031e-20 0.0000000000000000e+00  2.2594092294939461e-21 3.8893080133904297e-20 0.0000000000000000e+00  2.1033770644579721e-21 -4.1392984740431884e-20 0.0000000000000000e+00  -4.8323138376550873e-21 -4.4893754362731137e-20 0.0000000000000000e+00  -2.8217704813618467e-19 2.1710373081139844e-19 0.0000000000000000e+00  5.8559157263313142e-06 -4.0666115302058198e-09 0.0000000000000000e+00  5.6481245572804012e-06 -3.3418895540548061e-09 0.0000000000000000e+00  5.6486811852438020e-06 -1.3550878109995430e-08 0.0000000000000000e+00  5.6426371476723969e-06 1.9771460439674135e-09 0.0000000000000000e+00  5.6455267799158182e-06 -7.8028455639282258e-10 0.0000000000000000e+00  5.6407526911403193e-06 6.2238528752758720e-09 0.0000000000000000e+00  5.8256191160934126e-06 7.7166017167368393e-09 0.0000000000000000e+00  5.8507855591396010e-06 8.5157879674336494e-08 0.0000000000000000e+00  5.8274926048294066e-06 -1.0134266606632141e-09 0.0000000000000000e+00  5.8681580136690536e-06 -3.3313622320554158e-09 0.0000000000000000e+00  5.8767707589419873e-06 1.6525717581511192e-09 0.0000000000000000e+00  5.8786766526278053e-06 -1.2936963803606909e-09 0.0000000000000000e+00  -1.0598701762764987e-06 8.6777600133671497e-06 0.0000000000000000e+00  -2.1662146567010582e-06 -9.0357306220954564e-06 0.0000000000000000e+00  5.6590666167449635e-06 -1.9262765189276976e-08 0.0000000000000000e+00  5.8155778238214987e-06 7.2746068422107489e-09 0.0000000000000000e+00  5.8793305737892226e-06 -1.1805444472806046e-09 0.0000000000000000e+00  5.8780665913458996e-06 -1.3420931875944965e-09 0.0000000000000000e+00  4.2984688509291979e-20 4.8836046815554241e-22 0.0000000000000000e+00  5.1994760231548858e-06 3.7903811625089437e-07 0.0000000000000000e+00  2.4140895194179126e-05 2.8234045675868681e-05 0.0000000000000000e+00  2.4502821218276761e-05 -3.0107017603920408e-05 0.0000000000000000e+00  5.8815075150394732e-06 -9.4492014507676237e-10 0.0000000000000000e+00  5.6003081028097715e-06 5.6403101375934670e-09 0.0000000000000000e+00  4.2638809004141669e-20 1.1800620220962215e-22 0.0000000000000000e+00  5.6256677428478582e-06 -9.0553529896177144e-09 0.0000000000000000e+00  5.8815625851625522e-06 1.0375779047951207e-09 0.0000000000000000e+00  5.8012957916927234e-06 4.6687769970273456e-07 0.0000000000000000e+00  5.8714632253054760e-06 2.4032303817445282e-10 0.0000000000000000e+00  4.4410188389614718e-20 -4.0823918028285186e-22 0.0000000000000000e+00  5.8784433621989383e-06 2.3603345470763695e-09 0.0000000000000000e+00  5.8761874464717577e-06 -2.6203576506729126e-09 0.0000000000000000e+00  5.8278073758076786e-06 -1.9889259232491817e-09 0.0000000000000000e+00  5.8435770876454813e-06 1.1144890910205899e-09 0.0000000000000000e+00  5.8291063662131984e-06 -4.4144022662042025e-09 0.0000000000000000e+00  4.2371991844112323e-20 3.4844715992456028e-22 0.0000000000000000e+00  5.8470068364373137e-06 -1.7015867129811200e-09 0.0000000000000000e+00  5.8790543685288736e-06 4.6806883968363450e-09 0.0000000000000000e+00  5.6554279569008749e-06 1.3263495711738537e-08 0.0000000000000000e+00  5.8781254858670048e-06 -2.5409897722353936e-10 0.0000000000000000e+00  5.8788877772887296e-06 -2.9013556802729407e-08 0.0000000000000000e+00  5.8737405469572418e-06 8.1278182851382956e-10 0.0000000000000000e+00  5.8744908850654105e-06 -1.3800438852923432e-09 0.0000000000000000e+00  5.6698068557117282e-06 -8.8837261443233293e-08 0.0000000000000000e+00  5.8431490280501761e-06 3.5621706491610338e-09 0.0000000000000000e+00  5.8408541477662023e-06 -5.2301875626771440e-09 0.0000000000000000e+00  5.8350167907393566e-06 -3.7770737958995516e-09 0.0000000000000000e+00  5.8452914156893862e-06 -9.4797268040048927e-09 0.0000000000000000e+00  5.8733524802194509e-06 1.8183294812426867e-09 0.0000000000000000e+00  4.3303993761530784e-20 -5.0583431722500670e-22 0.0000000000000000e+00  5.4371869963230254e-06 -3.1435749690155968e-06 0.0000000000000000e+00  3.2109544583657726e-06 -5.9179140181920422e-06 0.0000000000000000e+00  1.3692310477319729e-06 -4.4480543593276526e-06 0.0000000000000000e+00  4.2024663995780718e-06 -1.5047675760165573e-06 0.0000000000000000e+00  5.8799284328210299e-06 3.0692517105110878e-10 0.0000000000000000e+00  5.8751119932310719e-06 -3.1003926463844844e-09 0.0000000000000000e+00  5.8743850880084146e-06 4.9932949640796304e-10 0.0000000000000000e+00  5.8742533622693461e-06 -1.1229899312735279e-09 0.0000000000000000e+00  5.8665391995082139e-06 -1.2505437298717267e-08 0.0000000000000000e+00  5.8398149390294044e-06 1.3009578860916702e-08 0.0000000000000000e+00  4.5679797644170540e-20 8.6076863408496971e-23 0.0000000000000000e+00  5.8356344554121677e-06 8.1446453490390260e-09 0.0000000000000000e+00  5.8744538794229722e-06 -1.7399309820498262e-09 0.0000000000000000e+00  5.8742830172975224e-06 2.8876372253594025e-11 0.0000000000000000e+00  5.8342742401099634e-06 5.2354391791860327e-09 0.000000