<?xml version="1.0"?>
<VTKFile type="UnstructuredGrid"  version="0.1"  >
<UnstructuredGrid>
<Piece  NumberOfPoints="1079" NumberOfCells="1944">
<Points>
<DataArray  type="Float64"  NumberOfComponents="3"  format="ascii">0.08500000000000001 0.02 0  0.005 0.02 0  0.005 0.03 0  0 0.03 0  0 0 0  0.005 0 0  0.005 0.01 0  0.08500000000000001 0.01 0  0 0.015 0  0 0.0075 0  0 0.0225 0  0.04500000000000001 0.02 0  0.04500000000000001 0.01 0  0.025 0.01 0  0.025 0.02 0  0.065 0.02 0  0.065 0.01 0  0.035 0.02 0  0.035 0.01 0  0.07500000000000001 0.02 0  0.07500000000000001 0.01 0  0.015 0.02 0  0.015 0.01 0  0.05500000000000001 0.01 0  0.05500000000000001 0.02 0  0.07000000000000001 0.01 0  0.07000000000000001 0.02 0  0.05 0.01 0  0.03 0.01 0  0.03 0.02 0  0.04000000000000001 0.01 0  0.01 0.01 0  0.02 0.02 0  0.06 0.015 0  0.08500000000000001 0.015 0  0.05 0.02 0  0.07250000000000001 0.015 0  0.04000000000000001 0.02 0  0.03750000000000001 0.015 0  0.0525 0.015 0  0.02 0.01 0  0.01 0.02 0  0.0275 0.015 0  0.0125 0.015 0  0.08000000000000002 0.01 0  0.08000000000000002 0.02 0  0.0325 0.014375 0  0.04291666666666667 0.015 0  0.065 0.015 0  0.005 0.005 0  0.005 0.015 0  0.02208333333333334 0.015 0  0.07791666666666668 0.015 0  0.005 0.025 0  0.06 0.01 0  0.06 0.02 0  0.01729166666666667 0.01572916666666667 0  0.04770833333333334 0.01427083333333334 0  0.06875000000000001 0.01625 0  0.008750000000000001 0.01625 0  0.05625000000000001 0.01625 0  0 0.00375 0  0 0.01875 0  0 0.01125 0  0 0.02625 0  0.08145833333333334 0.01354166666666667 0  0.0675 0.01 0  0.0075 0.0125 0  0.0625 0.0175 0  0.0575 0.0125 0  0.0625 0.0125 0  0.08207465277777778 0.01707465277777778 0  0.06767857142857144 0.01321428571428571 0  0.0175 0.01 0  0.01875 0.01291382575757576 0  0.0475 0.02 0  0.04564168086314595 0.01679860519591141 0  0.00296875 0.0125 0  0.0025 0.03 0  0.0025 0 0  0.00296875 0.0175 0  0.01521990740740741 0.0132349537037037 0  0.0497800925925926 0.0167650462962963 0  0.0325 0.02 0  0.03474264705882353 0.01674632352941176 0  0.03750000000000001 0.02 0  0.03025735294117647 0.01674632352941176 0  0.0275 0.02 0  0.0525 0.02 0  0.0125 0.01 0  0.04020833333333334 0.01322916666666667 0  0.03750000000000001 0.01 0  0.0225 0.02 0  0.02479166666666667 0.01677083333333333 0  0.07520833333333335 0.01322916666666667 0  0.07250000000000001 0.01 0  0.07520833333333335 0.01677083333333334 0  0.07250000000000001 0.02 0  0.04020833333333334 0.01677083333333333 0  0.0225 0.01 0  0.02375 0.01262152777777778 0  0.04250000000000001 0.02 0  0.04250000000000001 0.01 0  0.07750000000000001 0.01 0  0.07750000000000001 0.02 0  0.05036151960784314 0.01294424019607843 0  0.0705560064935065 0.01284699675324675 0  0.05458333333333334 0.01291666666666666 0  0.0021875 0.024375 0  0.005 0.0275 0  0.01125 0.0175 0  0.01463848039215686 0.01705575980392157 0  0.01 0.01375 0  0.03625 0.0125 0  0.0021875 0.009375 0  0.05375000000000001 0.0175 0  0.07125000000000001 0.0175 0  0.005 0.0025 0  0.0021875 0.005625 0  0.02655220103578155 0.01234889948210923 0  0.002187499999999999 0.020625 0  0.02979166666666667 0.01302083333333333 0  0.0525 0.01 0  0.07895833333333334 0.0125 0  0.01994277885235332 0.01704213007736944 0  0.07934656179076068 0.01733823814273861 0  0.04505722114764669 0.01295786992263056 0  0.06625 0.0175 0  0.006250000000000001 0.0175 0  0.05750000000000001 0.02 0  0.05875000000000001 0.0175 0  0.005 0.0225 0  0.005 0.0075 0  0.002375 0.027375 0  0.002375 0.002625000000000001 0  0.0475 0.01 0  0.0175 0.02 0  0.0325 0.01 0  0.03375 0.0121875 0  0.04261299435028249 0.01749205508474576 0  0.08500000000000001 0.0125 0  0.08250000000000002 0.01 0  0.02121963399965531 0.01224824108143494 0  0.0675 0.02 0  0.0125 0.02 0  0.02720152243589744 0.0175 0  0.03715165441176471 0.0175 0  0.08500000000000001 0.0175 0  0.0275 0.01 0  0.0025 0.0149560546875 0  0.0075 0.01 0  0.0075 0.02 0  0.06526785714285716 0.0125 0  0.01281031447005516 0.0125 0  0.0625 0.015 0  0.06 0.0125 0  0.05750000000000001 0.01 0  0.0625 0.02 0  0.0625 0.01 0  0.08250000000000002 0.02 0  0.04260103740101855 0.01252623201412851 0  0.02240052247582197 0.01750164767101344 0  0.07293583459427785 0.01238479732953041 0  0.005234374999999999 0.012265625 0  0.03528131980640358 0.01454684009679821 0  0.0325 0.01760027210036557 0  0.02532593822924343 0.01428227733767297 0  0.08009952069819683 0.01527145502895417 0  0.01987282359856536 0.01482587683689801 0  0.04828232595121382 0.01210233572595705 0  0.01671767404878618 0.01789766427404295 0  0.05125 0.01829007549029352 0  0.05247215456215357 0.01288882122882024 0  0.07338729919678716 0.01799385040160642 0  0.03838729919678716 0.01200614959839357 0  0.07717482110586968 0.01780301674207099 0  0.04771860040890012 0.01773306039388322 0  0.03125 0.01160380747126437 0  0.06875000000000001 0.01154265873015873 0  0.07625000000000001 0.01154065860215054 0  0.01625 0.01153997817696946 0  0.068125 0.018125 0  0.05437500000000001 0.015625 0  0.066875 0.015625 0  0.07039794950204951 0.01494384850614853 0  0.05687500000000001 0.018125 0  0.006875 0.015625 0  0.008749999999999999 0.01833333333333333 0  0.010625 0.015625 0  0.05625 0.01416666666666667 0  0.05812500000000001 0.015625 0  0.0449088595298192 0.01494528408816316 0  0 0.016875 0  0 0.013125 0  0.04962452342047931 0.01478673066448802 0  0.0153754765795207 0.01521326933551198 0  0.0771774565913315 0.01322498191305479 0  0.01857756431135545 0.01840228599899994 0  0.04642243568864456 0.01159771400100006 0  0.08125000000000002 0.01155637254901961 0  0.08317650804863432 0.0118234919513657 0  0.08288217288011697 0.01511353252923977 0  0.02837253504384828 0.0117177464035174 0  0.03896057962520807 0.01831163685754031 0  0.01125 0.0114244162490927 0  0.00935910490099115 0.0119067901980177 0  0.02946078431372549 0.01495404411764706 0  0.02875 0.0185829434466942 0  0.002968749999999999 0.0225 0  0.064375 0.016875 0  0.00296875 0.0075 0  0 0.001875 0  0 0.005625 0  0 0.009375 0  0 0.020625 0  0 0.024375 0  0 0.028125 0  0.06062500000000001 0.01812500000000001 0  0.008303571428571429 0.01446428571428572 0  0.01375 0.01865917058160413 0  0.05137790313978056 0.01143372888932909 0  0.04125000000000001 0.01131513063942604 0  0.04101690263896279 0.01844430285842771 0  0.02399563533148224 0.01844349395710867 0  0.08125000000000002 0.01868815426145731 0  0.05354684380692146 0.01145463537600848 0  0.01699195823639423 0.01315138909884649 0  0.07598357371794873 0.015 0  0.04098357371794872 0.015 0  0.003744047619047619 0.00375 0  0.003344630281690141 0.02580853873239437 0  0.04625 0.0187354532243972 0  0.06388392857142858 0.01138392857142858 0  0.06375 0.01375 0  0.05875 0.01375 0  0.06375 0.02 0  0.00622802734375 0.01372802734375 0  0.003630681818181818 0.001369318181818182 0  0.003630681818181818 0.02863068181818182 0  0.06125 0.01625 0  0.06125 0.01125 0  0.05625000000000001 0.01 0  0.05875 0.01125 0  0.06125 0.01375 0  0.08337864763241221 0.0183786476324122 0  0.05213634138653413 0.01674432930673294 0  0.04375000000000001 0.01 0  0.07424178685897437 0.01529258578431373 0  0.03924178685897436 0.01529258578431372 0  0.03410139294454583 0.01843406022904556 0  0.03089860705545417 0.01843406022904556 0  0.02094160484316717 0.01850229584291991 0  0.04375000000000001 0.02 0  0.04437042160883325 0.01820701498672512 0  0.04816311705429156 0.01600061344661149 0  0.07151224904251052 0.0114127410511319 0  0.04395528506193162 0.01639387970349481 0  0.0128750358694518 0.0167500179347259 0  0.02855808448399799 0.01642839899839741 0  0.02812690373330794 0.01340955081400569 0  0.08358500641945087 0.01351822349116885 0  0.05590277777777778 0.01173611111111111 0  0.06683110430364615 0.01164926404662283 0  0.02573206694914602 0.01842532451809762 0  0.01438126661842046 0.01166701193099454 0  0.02384283211216029 0.01526549696571563 0  0.03625 0.02 0  0.004609375000000001 0.0182421875 0  0.003398437500000001 0.01943359375 0  0.001728307845744682 0.01894718251329787 0  0.004377805359085963 0.01656966216675735 0  0.04649673309852075 0.0153889662370871 0  0.03615513600614297 0.01592654988586041 0  0.03316985071935832 0.01598763605018279 0  0.03110111603888768 0.01529816275177977 0  0.01370614113484869 0.0138804542047638 0  0.04930041102671841 0.01842260568883502 0  0.07875000000000001 0.02 0  0.0745395359848485 0.01165101111925709 0  0.03860755698543604 0.01373741558556884 0  0.02605038706571737 0.01573944002207753 0  0.07559826163500957 0.01841729376139847 0  0.04437500000000001 0.01149157931286774 0  0.06874116707361365 0.01454618473032123 0  0.003761917372881356 0.0239307468220339 0  0.003984374999999999 0.01125 0  0.003768503289473684 0.01392539576480263 0  0.001796875 0.0111328125 0  0.003761917372881356 0.008930746822033899 0  0.005 0.00625 0  0.003761917372881355 0.0210692531779661 0  0.06633928571428571 0.01410714285714285 0  0.006484375 0.01125 0  0.08364120589325512 0.01657288979763549 0  0.03576267476503373 0.0184116442851204 0  0.07370875846579374 0.0137848203678562 0  0.06964285714285715 0.01758928571428571 0  0.05520833333333334 0.01833333333333333 0  0.06491071428571429 0.01839285714285714 0  0.0510098951944636 0.01559941474766356 0  0.01786087179886325 0.0115702210443714 0  0.01972197383235524 0.01160576093166696 0  0.01804697593127788 0.01433503795474974 0  0.001644074528704677 0.01642892723865279 0  0.00125 0.03 0  0.001497685185185185 0.001267746913580247 0  0.07315451164202422 0.01643443118912983 0  0.001233906745910645 0.0140625 0  0.01162635071030191 0.01362229857939618 0  0.01528023503083844 0.01845923557506155 0  0.06625 0.02 0  0.07695012019230771 0.01624387078484555 0  0.03139091092855769 0.01320776147621796 0  0.03857339107781042 0.01675295051810485 0  0.001754993120977522 0.02590789105493891 0  0.002288757784711197 0.00412546923654445 0  0.07914382119690884 0.01404430049871201 0  0.001391810103286306 0.01257390899021902 0  0.0419501201923077 0.01614675005432421 0  0.001484375 0.007018229166666667 0  0.001484375 0.02201822916666666 0  0.048
[...]
<PointData  Vectors="velocity"> 
<DataArray  type="Float64"  Name="velocity"  NumberOfComponents="3" format="ascii">1.9098055503997071e-06 1.4294216191653949e-20 0.0000000000000000e+00  4.0095606341550134e-20 -4.4928558891647693e-20 0.0000000000000000e+00  1.7525889228467320e-18 -9.3260334688322600e-05 0.0000000000000000e+00  -1.9852334701272726e-18 -9.3260334688322438e-05 0.0000000000000000e+00  -1.8818358935581460e-18 9.3260334688322465e-05 0.0000000000000000e+00  1.7836081958174740e-18 9.3260334688322397e-05 0.0000000000000000e+00  3.7488142273322182e-20 3.5162701533821479e-20 0.0000000000000000e+00  1.9614086583108431e-06 -1.4322322177426910e-20 0.0000000000000000e+00  4.3944121661173305e-21 -2.8885683419521250e-22 0.0000000000000000e+00  -4.9980094698203763e-22 3.4331719383410519e-20 0.0000000000000000e+00  2.0642642674281026e-22 -4.0724660602266108e-20 0.0000000000000000e+00  3.8305457662948923e-20 -1.4251859463548616e-22 0.0000000000000000e+00  3.0497326656556333e-20 1.9472436059593162e-22 0.0000000000000000e+00  3.8447165336178483e-20 1.1836554476511517e-22 0.0000000000000000e+00  3.0191258138634086e-20 -1.2143646157849413e-22 0.0000000000000000e+00  3.5954919770781990e-20 1.1806742774693693e-22 0.0000000000000000e+00  3.5639428040074945e-20 5.1476732574543028e-23 0.0000000000000000e+00  2.7556781109308379e-20 -6.0974544973855143e-23 0.0000000000000000e+00  4.0681937568429751e-20 -4.2307600301719607e-23 0.0000000000000000e+00  3.4875478418210591e-20 2.1575833058254694e-22 0.0000000000000000e+00  3.1335417319375250e-20 1.3865882758117663e-22 0.0000000000000000e+00  3.0390673274862122e-20 -7.7480992515526937e-23 0.0000000000000000e+00  2.7930201479753039e-20 -7.1270391755916917e-23 0.0000000000000000e+00  3.3700445758431298e-20 -3.9218746704050432e-22 0.0000000000000000e+00  3.1496467577964326e-20 1.4421573198281945e-22 0.0000000000000000e+00  3.3370348967933306e-20 4.9874162859682929e-23 0.0000000000000000e+00  3.7824982990327135e-20 -1.2742216647132097e-22 0.0000000000000000e+00  3.5559011729797382e-20 1.1165623111818272e-22 0.0000000000000000e+00  3.6592628671583127e-20 1.5599615573962261e-23 0.0000000000000000e+00  2.9569614818294882e-20 -7.2466204209583547e-23 0.0000000000000000e+00  3.2077081778333961e-20 1.1337950462946295e-22 0.0000000000000000e+00  3.5577153967410594e-20 1.9664243264300074e-22 0.0000000000000000e+00  3.0993404339465247e-20 -6.3104438406803329e-23 0.0000000000000000e+00  4.8720830545676798e-06 -7.1222260901595843e-10 0.0000000000000000e+00  4.6792602486643796e-06 3.1825807657997170e-24 0.0000000000000000e+00  2.9740964400956377e-20 2.1270359225401783e-23 0.0000000000000000e+00  4.8719932768929877e-06 1.6424853008126815e-09 0.0000000000000000e+00  3.5276734319221168e-20 -3.3039838650424875e-22 0.0000000000000000e+00  4.8679377126688232e-06 -2.3696520252593697e-09 0.0000000000000000e+00  4.8670080796681111e-06 -2.6512309696982795e-10 0.0000000000000000e+00  3.2786924761417068e-20 1.3782847296754134e-23 0.0000000000000000e+00  3.6681533353708063e-20 -6.8642333054737700e-22 0.0000000000000000e+00  4.8676359049023345e-06 -1.2682093975879835e-10 0.0000000000000000e+00  4.8574837545942400e-06 -1.8898457443161446e-08 0.0000000000000000e+00  3.0722273808192888e-20 -1.4424144478756425e-22 0.0000000000000000e+00  3.3977856248741810e-20 6.2135298692615572e-22 0.0000000000000000e+00  4.8665091614235965e-06 1.4268411129693935e-10 0.0000000000000000e+00  4.8714425915233508e-06 -4.7499289535381648e-10 0.0000000000000000e+00  4.8701288707644092e-06 -4.0983283026488062e-10 0.0000000000000000e+00  -2.4631395904576774e-21 4.2793940359466718e-20 0.0000000000000000e+00  3.6802137714356286e-06 -1.9228910357722316e-07 0.0000000000000000e+00  4.8657454821353392e-06 1.1887902305520467e-09 0.0000000000000000e+00  4.8644765353989702e-06 2.5042738779191506e-10 0.0000000000000000e+00  -3.7616703941129980e-21 -5.1285865119142266e-20 0.0000000000000000e+00  3.1180831684128084e-20 5.3011452830852475e-23 0.0000000000000000e+00  3.4732087900414364e-20 4.2522726598787262e-22 0.0000000000000000e+00  4.8680414568507119e-06 -1.7325548780422829e-09 0.0000000000000000e+00  4.8695918627650497e-06 1.2877748874702609e-09 0.0000000000000000e+00  4.8701655207024688e-06 -1.2425019765788305e-09 0.0000000000000000e+00  4.7953126822865306e-06 -1.5494057409590470e-07 0.0000000000000000e+00  4.8667025346552677e-06 -3.6612448704103528e-09 0.0000000000000000e+00  -2.1166088922036705e-20 7.1362279722660336e-21 0.0000000000000000e+00  1.9065528163190807e-21 -2.0145788858365968e-20 0.0000000000000000e+00  2.8257982248905096e-21 2.1022498896000735e-20 0.0000000000000000e+00  -2.6170618791783381e-20 5.9706193145188859e-21 0.0000000000000000e+00  4.8197612124503915e-06 -4.6562125586891660e-08 0.0000000000000000e+00  2.9005579286104858e-20 -9.0588990436961480e-23 0.0000000000000000e+00  4.7999476060116159e-06 2.7643422939589281e-07 0.0000000000000000e+00  4.8610933652099552e-06 1.3631123637929561e-10 0.0000000000000000e+00  4.8632682835130317e-06 4.1120144726319181e-10 0.0000000000000000e+00  4.8676254152582876e-06 -2.0888848767296345e-09 0.0000000000000000e+00  4.8145075924822784e-06 8.9031994685180334e-08 0.0000000000000000e+00  4.8670894822724483e-06 -9.8635710648748407e-10 0.0000000000000000e+00  3.1853291080273896e-20 -8.5830805084162032e-24 0.0000000000000000e+00  4.8631746750570943e-06 -8.5505547930702000e-11 0.0000000000000000e+00  3.9223879580614570e-20 5.8879901725111833e-22 0.0000000000000000e+00  4.8714352215422750e-06 -3.7113965750937960e-09 0.0000000000000000e+00  2.3283960772696475e-06 1.8990668056861758e-06 0.0000000000000000e+00  -1.0963089645281306e-19 -9.3260334688322926e-05 0.0000000000000000e+00  -1.6311055714371040e-19 9.3260334688322966e-05 0.0000000000000000e+00  2.4113056450814064e-06 -2.3717038743047861e-06 0.0000000000000000e+00  4.8612809274745878e-06 -6.8374246639787452e-09 0.0000000000000000e+00  4.8655212356825708e-06 4.3731253668111323e-09 0.0000000000000000e+00  3.3320890234761858e-20 3.0065723854321413e-22 0.0000000000000000e+00  4.8651033158471334e-06 -1.5009320350416704e-09 0.0000000000000000e+00  3.4162559680553782e-20 2.1670685972646300e-22 0.0000000000000000e+00  4.8660422135577494e-06 -1.5464912824821221e-09 0.0000000000000000e+00  3.5460260460524880e-20 7.7788539730392758e-23 0.0000000000000000e+00  3.3231226402380491e-20 -4.5441791458584740e-24 0.0000000000000000e+00  3.5192723069360393e-20 1.8952395656176133e-22 0.0000000000000000e+00  4.8676132585831578e-06 1.5060443705555100e-09 0.0000000000000000e+00  3.2891157081975765e-20 1.1550112507266224e-22 0.0000000000000000e+00  3.3697645305821179e-20 9.3187407761686399e-23 0.0000000000000000e+00  4.8645458495093924e-06 3.7250100869677008e-10 0.0000000000000000e+00  4.8692838537757736e-06 7.7569359441413550e-10 0.0000000000000000e+00  3.3918619897006434e-20 2.1663834210541236e-23 0.0000000000000000e+00  4.8683518187932762e-06 3.3404194792042006e-09 0.0000000000000000e+00  3.7315547626572962e-20 3.9801750291375742e-22 0.0000000000000000e+00  4.8706033682556963e-06 -6.1828351313912489e-09 0.0000000000000000e+00  3.1408022574581168e-20 1.4675548825593027e-23 0.0000000000000000e+00  4.8603404969155742e-06 3.2774781561164274e-09 0.0000000000000000e+00  3.6058366658238070e-20 -2.9344373908071348e-24 0.0000000000000000e+00  3.5031333673515209e-20 2.9105757541780462e-22 0.0000000000000000e+00  3.5913162510082371e-20 5.8485423428320521e-22 0.0000000000000000e+00  3.8636965256295632e-20 -2.3746406331577164e-22 0.0000000000000000e+00  4.8686557028710253e-06 3.6879816375462012e-09 0.0000000000000000e+00  4.8697941697913988e-06 5.7572483003806756e-09 0.0000000000000000e+00  4.8683737499182449e-06 6.0084968488239766e-10 0.0000000000000000e+00  -1.0207466421756359e-06 -5.3511384754519787e-06 0.0000000000000000e+00  7.3445458052863876e-21 -7.3452006912253347e-20 0.0000000000000000e+00  4.8857864983098343e-06 -4.1329160839418747e-08 0.0000000000000000e+00  4.8753307677066500e-06 -1.3605273627356527e-08 0.0000000000000000e+00  4.8105859258804779e-06 1.1903879270265357e-08 0.0000000000000000e+00  4.8567689898577503e-06 -5.2152899513975072e-09 0.0000000000000000e+00  8.1672656269870324e-07 4.3484115644256914e-06 0.0000000000000000e+00  4.8610063158849003e-06 -8.5819514567278766e-12 0.0000000000000000e+00  4.8713389532493229e-06 -2.7925069861157048e-12 0.0000000000000000e+00  1.4237216743410454e-20 3.9784869350257415e-20 0.0000000000000000e+00  -9.0018088188648750e-07 4.6227044381533079e-06 0.0000000000000000e+00  4.8603312232958662e-06 -3.3315124020036525e-09 0.0000000000000000e+00  8.1352944868405991e-07 -5.0131135757383986e-06 0.0000000000000000e+00  4.8687087948649392e-06 -8.0989829105805623e-10 0.0000000000000000e+00  3.1854459393508185e-20 -2.6299203851451505e-22 0.0000000000000000e+00  4.8592560097023853e-06 -1.4840563547455666e-08 0.0000000000000000e+00  4.8639122237829169e-06 3.3512271341006043e-11 0.0000000000000000e+00  4.8617766466216129e-06 2.2442699892432829e-08 0.0000000000000000e+00  4.8699077181050736e-06 -1.0837007918914904e-09 0.0000000000000000e+00  4.8678061916533948e-06 -5.7502231290399193e-09 0.0000000000000000e+00  4.8596149703067105e-06 -8.9628574315427906e-07 0.0000000000000000e+00  3.5670216912977221e-20 -5.0166238377457519e-22 0.0000000000000000e+00  4.8589530194555838e-06 -1.7334771163755949e-09 0.0000000000000000e+00  4.2447002710407883e-22 -4.5453566761842242e-20 0.0000000000000000e+00  3.6123846716333886e-22 4.1515383722956431e-20 0.0000000000000000e+00  -1.1165869436657961e-05 -1.2238084011433024e-05 0.0000000000000000e+00  -9.0807377247437197e-06 1.0052056117541786e-05 0.0000000000000000e+00  3.3058007131110540e-20 1.1062078981536935e-23 0.0000000000000000e+00  3.8014915121479934e-20 5.6422807893072309e-22 0.0000000000000000e+00  3.1236867254942279e-20 4.8378655739652883e-23 0.0000000000000000e+00  4.8591832679925536e-06 5.9233847467487787e-09 0.0000000000000000e+00  4.8612154283672529e-06 3.5736906298920922e-09 0.0000000000000000e+00  4.4221964664286405e-06 -1.2402408144582618e-21 0.0000000000000000e+00  3.2902442687236685e-20 -1.1557301816010947e-21 0.0000000000000000e+00  4.8611268594984857e-06 1.3686404033290344e-09 0.0000000000000000e+00  3.7667972349328964e-20 2.2858139227969603e-22 0.0000000000000000e+00  3.3131980779694095e-20 -6.7946444958357041e-23 0.0000000000000000e+00  4.8659095059889435e-06 -6.2007459049754974e-10 0.0000000000000000e+00  4.8711938028810119e-06 5.2144686005293797e-10 0.0000000000000000e+00  4.4171464857078023e-06 1.5633440104302089e-21 0.0000000000000000e+00  3.4536351604172752e-20 -4.2098056544422232e-22 0.0000000000000000e+00  1.8102573188295767e-06 -1.7794958367867257e-07 0.0000000000000000e+00  3.4190847688727438e-20 1.1403798357718587e-21 0.0000000000000000e+00  4.0792720334261069e-20 -1.5319091547032591e-21 0.0000000000000000e+00  4.8661195318773759e-06 -2.1799175530720662e-09 0.0000000000000000e+00  4.8491578956689666e-06 -5.8621183141066260e-09 0.0000000000000000e+00  4.8725247845168973e-06 3.3414609873688741e-11 0.0000000000000000e+00  4.8633305914814690e-06 3.0681390559750290e-09 0.0000000000000000e+00  3.4936544296957417e-20 3.3589343964011774e-23 0.0000000000000000e+00  4.3463660353425261e-20 1.2831995254495153e-22 0.0000000000000000e+00  3.4645185024304725e-20 -6.4686125017175455e-22 0.0000000000000000e+00  3.0609701078892393e-20 6.7307946924261222e-22 0.0000000000000000e+00  4.8624268849120105e-06 -7.8301762720932468e-10 0.0000000000000000e+00  4.8630315476173668e-06 1.8430535738830331e-09 0.0000000000000000e+00  4.8618890512469594e-06 -1.6068764475394152e-09 0.0000000000000000e+00  4.4086120470272598e-06 1.3142547030741948e-06 0.0000000000000000e+00  4.8686530880670627e-06 -1.3996784812447971e-09 0.0000000000000000e+00  4.8607035360242082e-06 1.5738576810582378e-09 0.0000000000000000e+00  4.8674573310139260e-06 1.4280437996337630e-09 0.0000000000000000e+00  4.8403841233225107e-06 5.4422765288105201e-09 0.0000000000000000e+00  4.8652433735786981e-06 3.3091519957396414e-10 0.0000000000000000e+00  4.8498497544226173e-06 1.3369597925008751e-09 0.0000000000000000e+00  4.8611616062053657e-06 8.8363854712531567e-10 0.0000000000000000e+00  4.8403356495113920e-06 3.5515714877864411e-10 0.0000000000000000e+00  4.8667637234062196e-06 -4.6709937870763375e-09 0.0000000000000000e+00  4.8522439186611848e-06 2.8481508427134419e-09 0.0000000000000000e+00  4.8477600723274388e-06 -1.7926459796123632e-09 0.0000000000000000e+00  4.8589166684839464e-06 1.9913457120328314e-09 0.0000000000000000e+00  4.8657804365890672e-06 6.0686159387313289e-09 0.0000000000000000e+00  4.8329857988950560e-06 -5.6266363955933099e-09 0.0000000000000000e+00  4.8325668621445042e-06 5.2636044914941511e-09 0.0000000000000000e+00  4.8404949451799710e-06 -7.5036705860329240e-10 0.0000000000000000e+00  4.8305433527595449e-06 -3.5127955991648399e-09 0.0000000000000000e+00  4.8428408608488710e-06 -2.9605872368781593e-09 0.0000000000000000e+00  4.8664628427687294e-06 -1.3248763276159508e-09 0.0000000000000000e+00  4.8692563013360704e-06 -8.9933771356672613e-10 0.0000000000000000e+00  4.8713930060243097e-06 1.1426920179201621e-09 0.0000000000000000e+00  4.8477773071348971e-06 -4.5921124759613639e-09 0.0000000000000000e+00  4.4616269545875994e-06 -2.7354099423883021e-07 0.0000000000000000e+00  4.9836045672163595e-06 -1.4789978033647986e-07 0.0000000000000000e+00  4.8377117382331444e-06 -4.7392106745571370e-08 0.0000000000000000e+00  4.8682186139795774e-06 -1.4848212886890277e-09 0.0000000000000000e+00  4.8708106848246351e-06 -3.2691482532475209e-09 0.0000000000000000e+00  4.8709366883032263e-06 -7.7165152322121043e-10 0.0000000000000000e+00  3.1283242004475208e-21 -1.2323701395702355e-20 0.0000000000000000e+00  4.2650910495205650e-21 1.0258616969426667e-20 0.0000000000000000e+00  4.8683361607008447e-06 2.3438459323943771e-09 0.0000000000000000e+00  4.8672810751486399e-06 -7.7539482199378448e-09 0.0000000000000000e+00  4.8716876348300772e-06 9.4747618715512332e-10 0.0000000000000000e+00  4.8340414292986545e-06 2.1638567040854080e-09 0.0000000000000000e+00  4.8434340856170931e-06 2.6071020509829185e-09 0.0000000000000000e+00  4.8700341083148909e-06 -6.5466471146250257e-08 0.0000000000000000e+00  4.8082644072260709e-06 -3.0220972669426787e-07 0.0000000000000000e+00  4.7440525950469351e-06 5.1943269140809666e-09 0.0000000000000000e+00  4.8367559195436553e-06 4.2203373063898328e-09 0.0000000000000000e+00  4.8379439174226015e-06 -4.1707213853702330e-10 0.0000000000000000e+00  4.6496062501637754e-06 2.0336124774383311e-09 0.0000000000000000e+00  4.8512642004158917e-06 6.3821091894925671e-08 0.0000000000000000e+00  4.8671517707176994e-06 -6.7818781783341134e-10 0.0000000000000000e+00  4.8192879202943321e-06 5.7184071684838093e-09 0.0000000000000000e+00  3.8127669020691731e-08 -5.7300944460581479e-06 0.0000000000000000e+00  4.8679844973785456e-06 3.0082008461964195e-09 0.0000000000000000e+00  5.5031719455313196e-08 4.9629947986691964e-06 0.0000000000000000e+00  -2.0137577185175174e-19 -2.1379360266316909e-19 0.0000000000000000e+00  -4.1130043467481774e-21 2.9613631296586875e-20 0.0000000000000000e+00  1.9089046347708114e-21 3.2876841746313582e-20 0.0000000000000000e+00  1.8095003071669529e-21 -3.4736350972062925e-20 0.0000000000000000e+00  -3.9749678342001529e-21 -3.6164413236644528e-20 0.0000000000000000e+00  -2.2830362760212538e-19 1.8605431758225499e-19 0.0000000000000000e+00  4.8517926026849345e-06 -3.3693740380646692e-09 0.0000000000000000e+00  4.6795897948190132e-06 -2.9877402731470852e-09 0.0000000000000000e+00  4.6801283824202886e-06 -1.1242728002039033e-08 0.0000000000000000e+00  4.6750847561214236e-06 1.6417397949027546e-09 0.0000000000000000e+00  4.6774791652539517e-06 -6.4512290715714534e-10 0.0000000000000000e+00  4.6735255501901809e-06 5.1531174170778560e-09 0.0000000000000000e+00  4.8266929029368589e-06 6.3929153085304895e-09 0.0000000000000000e+00  4.8475410404804485e-06 7.0554654031915038e-08 0.0000000000000000e+00  4.8282436405189149e-06 -8.4085332343675807e-10 0.0000000000000000e+00  4.8619284887889426e-06 -2.7707104077601047e-09 0.0000000000000000e+00  4.8690717788874656e-06 1.3692419759740181e-09 0.0000000000000000e+00  4.8706507065757193e-06 -1.0718715396253031e-09 0.0000000000000000e+00  -8.8032447131964747e-07 7.1925493197549309e-06 0.0000000000000000e+00  -1.7990004067274394e-06 -7.4909124165897635e-06 0.0000000000000000e+00  4.6887023909278256e-06 -1.5959614178328836e-08 0.0000000000000000e+00  4.8183722347650725e-06 6.0264620371046866e-09 0.0000000000000000e+00  4.8711925915740816e-06 -9.7811089607926659e-10 0.0000000000000000e+00  4.8701452044558056e-06 -1.1120185648070208e-09 0.0000000000000000e+00  3.3183128286653881e-20 3.8934570590140600e-22 0.0000000000000000e+00  4.3077716634808274e-06 3.1364947533967377e-07 0.0000000000000000e+00  2.0009496552822217e-05 2.3413982186330732e-05 0.0000000000000000e+00  2.0316542456445600e-05 -2.4972013115688959e-05 0.0000000000000000e+00  4.8729962750076274e-06 -7.8297997655688390e-10 0.0000000000000000e+00  4.6400196172700976e-06 4.6741025648216214e-09 0.0000000000000000e+00  3.3526796412353573e-20 8.9694122327074947e-23 0.0000000000000000e+00  4.6610252336281811e-06 -7.5004094064548865e-09 0.0000000000000000e+00  4.8730417844663955e-06 8.5968849235840075e-10 0.0000000000000000e+00  4.8065371640709273e-06 3.8682293665489054e-07 0.0000000000000000e+00  4.8646742477512060e-06 1.9917069601655895e-10 0.0000000000000000e+00  3.5572085224598684e-20 -3.4496009948496296e-22 0.0000000000000000e+00  4.8704575215333044e-06 1.9556145505287895e-09 0.0000000000000000e+00  4.8685883472636208e-06 -2.1710573504924303e-09 0.0000000000000000e+00  4.8285042299359947e-06 -1.6474214748226175e-09 0.0000000000000000e+00  4.8415698431694391e-06 9.2328337637040085e-10 0.0000000000000000e+00  4.8295835859668622e-06 -3.6592491915453674e-09 0.0000000000000000e+00  3.5630641682714412e-20 2.8876086661989636e-22 0.0000000000000000e+00  4.8444119631796904e-06 -1.4094134870099677e-09 0.0000000000000000e+00  4.8709637657338797e-06 3.8780311396680411e-09 0.0000000000000000e+00  4.6856823774049400e-06 1.0991661621908993e-08 0.0000000000000000e+00  4.8701940669472173e-06 -2.1056672720614202e-10 0.0000000000000000e+00  4.8708533311862266e-06 -2.4081349810153978e-08 0.0000000000000000e+00  4.8665611605446251e-06 6.7315353015082884e-10 0.0000000000000000e+00  4.8671826262804925e-06 -1.1435935233822590e-09 0.0000000000000000e+00  4.6976010637696394e-06 -7.3599487104914867e-08 0.0000000000000000e+00  4.8412146167475337e-06 2.9519102071980856e-09 0.0000000000000000e+00  4.8393141544489663e-06 -4.3326928003305773e-09 0.0000000000000000e+00  4.8344774501431937e-06 -3.1303310407541873e-09 0.0000000000000000e+00  4.8429648880556413e-06 -7.8681929172195958e-09 0.0000000000000000e+00  4.8662396180361400e-06 1.5052697644250468e-09 0.0000000000000000e+00  3.4726874224222752e-20 -4.1001998169248318e-22 0.0000000000000000e+00  4.5052703236512852e-06 -2.6052101896240762e-06 0.0000000000000000e+00  2.6606569666956442e-06 -4.9042678746793364e-06 0.0000000000000000e+00  1.1345238285796536e-06 -3.6862912899427157e-06 0.0000000000000000e+00  3.4820162906540495e-06 -1.2473583510199867e-06 0.0000000000000000e+00  4.8716878891568052e-06 2.5423371509038645e-10 0.0000000000000000e+00  4.8676973021877158e-06 -2.5687516225926707e-09 0.0000000000000000e+00  4.8670950818459468e-06 4.1366169929168676e-10 0.0000000000000000e+00  4.8669859283536929e-06 -9.3057657612846476e-10 0.0000000000000000e+00  4.8605803612145398e-06 -1.0396391675431579e-08 0.0000000000000000e+00  4.8384538835299013e-06 1.0779177976570474e-08 0.0000000000000000e+00  3.7155046675364064e-20 6.8484511762964746e-23 0.0000000000000000e+00  4.8349882571067452e-06 6.7485920218864839e-09 0.0000000000000000e+00  4.8671520349189876e-06 -1.4416162306185588e-09 0.0000000000000000e+00  4.8670106596991113e-06 2.3349008043045139e-11 0.0000000000000000e+00  4.8338619933218201e-06 4.3380113712484030e-09 0.000000