<?xml version="1.0"?>
<VTKFile type="UnstructuredGrid"  version="0.1"  >
<UnstructuredGrid>
<Piece  NumberOfPoints="1079" NumberOfCells="1944">
<Points>
<DataArray  type="Float64"  NumberOfComponents="3"  format="ascii">0.08500000000000001 0.02 0  0.005 0.02 0  0.005 0.03 0  0 0.03 0  0 0 0  0.005 0 0  0.005 0.01 0  0.08500000000000001 0.01 0  0 0.015 0  0 0.0075 0  0 0.0225 0  0.04500000000000001 0.02 0  0.04500000000000001 0.01 0  0.025 0.01 0  0.025 0.02 0  0.065 0.02 0  0.065 0.01 0  0.035 0.02 0  0.035 0.01 0  0.07500000000000001 0.02 0  0.07500000000000001 0.01 0  0.015 0.02 0  0.015 0.01 0  0.05500000000000001 0.01 0  0.05500000000000001 0.02 0  0.07000000000000001 0.01 0  0.07000000000000001 0.02 0  0.05 0.01 0  0.03 0.01 0  0.03 0.02 0  0.04000000000000001 0.01 0  0.01 0.01 0  0.02 0.02 0  0.06 0.015 0  0.08500000000000001 0.015 0  0.05 0.02 0  0.07250000000000001 0.015 0  0.04000000000000001 0.02 0  0.03750000000000001 0.015 0  0.0525 0.015 0  0.02 0.01 0  0.01 0.02 0  0.0275 0.015 0  0.0125 0.015 0  0.08000000000000002 0.01 0  0.08000000000000002 0.02 0  0.0325 0.014375 0  0.04291666666666667 0.015 0  0.065 0.015 0  0.005 0.005 0  0.005 0.015 0  0.02208333333333334 0.015 0  0.07791666666666668 0.015 0  0.005 0.025 0  0.06 0.01 0  0.06 0.02 0  0.01729166666666667 0.01572916666666667 0  0.04770833333333334 0.01427083333333334 0  0.06875000000000001 0.01625 0  0.008750000000000001 0.01625 0  0.05625000000000001 0.01625 0  0 0.00375 0  0 0.01875 0  0 0.01125 0  0 0.02625 0  0.08145833333333334 0.01354166666666667 0  0.0675 0.01 0  0.0075 0.0125 0  0.0625 0.0175 0  0.0575 0.0125 0  0.0625 0.0125 0  0.08207465277777778 0.01707465277777778 0  0.06767857142857144 0.01321428571428571 0  0.0175 0.01 0  0.01875 0.01291382575757576 0  0.0475 0.02 0  0.04564168086314595 0.01679860519591141 0  0.00296875 0.0125 0  0.0025 0.03 0  0.0025 0 0  0.00296875 0.0175 0  0.01521990740740741 0.0132349537037037 0  0.0497800925925926 0.0167650462962963 0  0.0325 0.02 0  0.03474264705882353 0.01674632352941176 0  0.03750000000000001 0.02 0  0.03025735294117647 0.01674632352941176 0  0.0275 0.02 0  0.0525 0.02 0  0.0125 0.01 0  0.04020833333333334 0.01322916666666667 0  0.03750000000000001 0.01 0  0.0225 0.02 0  0.02479166666666667 0.01677083333333333 0  0.07520833333333335 0.01322916666666667 0  0.07250000000000001 0.01 0  0.07520833333333335 0.01677083333333334 0  0.07250000000000001 0.02 0  0.04020833333333334 0.01677083333333333 0  0.0225 0.01 0  0.02375 0.01262152777777778 0  0.04250000000000001 0.02 0  0.04250000000000001 0.01 0  0.07750000000000001 0.01 0  0.07750000000000001 0.02 0  0.05036151960784314 0.01294424019607843 0  0.0705560064935065 0.01284699675324675 0  0.05458333333333334 0.01291666666666666 0  0.0021875 0.024375 0  0.005 0.0275 0  0.01125 0.0175 0  0.01463848039215686 0.01705575980392157 0  0.01 0.01375 0  0.03625 0.0125 0  0.0021875 0.009375 0  0.05375000000000001 0.0175 0  0.07125000000000001 0.0175 0  0.005 0.0025 0  0.0021875 0.005625 0  0.02655220103578155 0.01234889948210923 0  0.002187499999999999 0.020625 0  0.02979166666666667 0.01302083333333333 0  0.0525 0.01 0  0.07895833333333334 0.0125 0  0.01994277885235332 0.01704213007736944 0  0.07934656179076068 0.01733823814273861 0  0.04505722114764669 0.01295786992263056 0  0.06625 0.0175 0  0.006250000000000001 0.0175 0  0.05750000000000001 0.02 0  0.05875000000000001 0.0175 0  0.005 0.0225 0  0.005 0.0075 0  0.002375 0.027375 0  0.002375 0.002625000000000001 0  0.0475 0.01 0  0.0175 0.02 0  0.0325 0.01 0  0.03375 0.0121875 0  0.04261299435028249 0.01749205508474576 0  0.08500000000000001 0.0125 0  0.08250000000000002 0.01 0  0.02121963399965531 0.01224824108143494 0  0.0675 0.02 0  0.0125 0.02 0  0.02720152243589744 0.0175 0  0.03715165441176471 0.0175 0  0.08500000000000001 0.0175 0  0.0275 0.01 0  0.0025 0.0149560546875 0  0.0075 0.01 0  0.0075 0.02 0  0.06526785714285716 0.0125 0  0.01281031447005516 0.0125 0  0.0625 0.015 0  0.06 0.0125 0  0.05750000000000001 0.01 0  0.0625 0.02 0  0.0625 0.01 0  0.08250000000000002 0.02 0  0.04260103740101855 0.01252623201412851 0  0.02240052247582197 0.01750164767101344 0  0.07293583459427785 0.01238479732953041 0  0.005234374999999999 0.012265625 0  0.03528131980640358 0.01454684009679821 0  0.0325 0.01760027210036557 0  0.02532593822924343 0.01428227733767297 0  0.08009952069819683 0.01527145502895417 0  0.01987282359856536 0.01482587683689801 0  0.04828232595121382 0.01210233572595705 0  0.01671767404878618 0.01789766427404295 0  0.05125 0.01829007549029352 0  0.05247215456215357 0.01288882122882024 0  0.07338729919678716 0.01799385040160642 0  0.03838729919678716 0.01200614959839357 0  0.07717482110586968 0.01780301674207099 0  0.04771860040890012 0.01773306039388322 0  0.03125 0.01160380747126437 0  0.06875000000000001 0.01154265873015873 0  0.07625000000000001 0.01154065860215054 0  0.01625 0.01153997817696946 0  0.068125 0.018125 0  0.05437500000000001 0.015625 0  0.066875 0.015625 0  0.07039794950204951 0.01494384850614853 0  0.05687500000000001 0.018125 0  0.006875 0.015625 0  0.008749999999999999 0.01833333333333333 0  0.010625 0.015625 0  0.05625 0.01416666666666667 0  0.05812500000000001 0.015625 0  0.0449088595298192 0.01494528408816316 0  0 0.016875 0  0 0.013125 0  0.04962452342047931 0.01478673066448802 0  0.0153754765795207 0.01521326933551198 0  0.0771774565913315 0.01322498191305479 0  0.01857756431135545 0.01840228599899994 0  0.04642243568864456 0.01159771400100006 0  0.08125000000000002 0.01155637254901961 0  0.08317650804863432 0.0118234919513657 0  0.08288217288011697 0.01511353252923977 0  0.02837253504384828 0.0117177464035174 0  0.03896057962520807 0.01831163685754031 0  0.01125 0.0114244162490927 0  0.00935910490099115 0.0119067901980177 0  0.02946078431372549 0.01495404411764706 0  0.02875 0.0185829434466942 0  0.002968749999999999 0.0225 0  0.064375 0.016875 0  0.00296875 0.0075 0  0 0.001875 0  0 0.005625 0  0 0.009375 0  0 0.020625 0  0 0.024375 0  0 0.028125 0  0.06062500000000001 0.01812500000000001 0  0.008303571428571429 0.01446428571428572 0  0.01375 0.01865917058160413 0  0.05137790313978056 0.01143372888932909 0  0.04125000000000001 0.01131513063942604 0  0.04101690263896279 0.01844430285842771 0  0.02399563533148224 0.01844349395710867 0  0.08125000000000002 0.01868815426145731 0  0.05354684380692146 0.01145463537600848 0  0.01699195823639423 0.01315138909884649 0  0.07598357371794873 0.015 0  0.04098357371794872 0.015 0  0.003744047619047619 0.00375 0  0.003344630281690141 0.02580853873239437 0  0.04625 0.0187354532243972 0  0.06388392857142858 0.01138392857142858 0  0.06375 0.01375 0  0.05875 0.01375 0  0.06375 0.02 0  0.00622802734375 0.01372802734375 0  0.003630681818181818 0.001369318181818182 0  0.003630681818181818 0.02863068181818182 0  0.06125 0.01625 0  0.06125 0.01125 0  0.05625000000000001 0.01 0  0.05875 0.01125 0  0.06125 0.01375 0  0.08337864763241221 0.0183786476324122 0  0.05213634138653413 0.01674432930673294 0  0.04375000000000001 0.01 0  0.07424178685897437 0.01529258578431373 0  0.03924178685897436 0.01529258578431372 0  0.03410139294454583 0.01843406022904556 0  0.03089860705545417 0.01843406022904556 0  0.02094160484316717 0.01850229584291991 0  0.04375000000000001 0.02 0  0.04437042160883325 0.01820701498672512 0  0.04816311705429156 0.01600061344661149 0  0.07151224904251052 0.0114127410511319 0  0.04395528506193162 0.01639387970349481 0  0.0128750358694518 0.0167500179347259 0  0.02855808448399799 0.01642839899839741 0  0.02812690373330794 0.01340955081400569 0  0.08358500641945087 0.01351822349116885 0  0.05590277777777778 0.01173611111111111 0  0.06683110430364615 0.01164926404662283 0  0.02573206694914602 0.01842532451809762 0  0.01438126661842046 0.01166701193099454 0  0.02384283211216029 0.01526549696571563 0  0.03625 0.02 0  0.004609375000000001 0.0182421875 0  0.003398437500000001 0.01943359375 0  0.001728307845744682 0.01894718251329787 0  0.004377805359085963 0.01656966216675735 0  0.04649673309852075 0.0153889662370871 0  0.03615513600614297 0.01592654988586041 0  0.03316985071935832 0.01598763605018279 0  0.03110111603888768 0.01529816275177977 0  0.01370614113484869 0.0138804542047638 0  0.04930041102671841 0.01842260568883502 0  0.07875000000000001 0.02 0  0.0745395359848485 0.01165101111925709 0  0.03860755698543604 0.01373741558556884 0  0.02605038706571737 0.01573944002207753 0  0.07559826163500957 0.01841729376139847 0  0.04437500000000001 0.01149157931286774 0  0.06874116707361365 0.01454618473032123 0  0.003761917372881356 0.0239307468220339 0  0.003984374999999999 0.01125 0  0.003768503289473684 0.01392539576480263 0  0.001796875 0.0111328125 0  0.003761917372881356 0.008930746822033899 0  0.005 0.00625 0  0.003761917372881355 0.0210692531779661 0  0.06633928571428571 0.01410714285714285 0  0.006484375 0.01125 0  0.08364120589325512 0.01657288979763549 0  0.03576267476503373 0.0184116442851204 0  0.07370875846579374 0.0137848203678562 0  0.06964285714285715 0.01758928571428571 0  0.05520833333333334 0.01833333333333333 0  0.06491071428571429 0.01839285714285714 0  0.0510098951944636 0.01559941474766356 0  0.01786087179886325 0.0115702210443714 0  0.01972197383235524 0.01160576093166696 0  0.01804697593127788 0.01433503795474974 0  0.001644074528704677 0.01642892723865279 0  0.00125 0.03 0  0.001497685185185185 0.001267746913580247 0  0.07315451164202422 0.01643443118912983 0  0.001233906745910645 0.0140625 0  0.01162635071030191 0.01362229857939618 0  0.01528023503083844 0.01845923557506155 0  0.06625 0.02 0  0.07695012019230771 0.01624387078484555 0  0.03139091092855769 0.01320776147621796 0  0.03857339107781042 0.01675295051810485 0  0.001754993120977522 0.02590789105493891 0  0.002288757784711197 0.00412546923654445 0  0.07914382119690884 0.01404430049871201 0  0.001391810103286306 0.01257390899021902 0  0.0419501201923077 0.01614675005432421 0  0.001484375 0.007018229166666667 0  0.001484375 0.02201822916666666 0  0.048
[...]
<PointData  Vectors="velocity"> 
<DataArray  type="Float64"  Name="velocity"  NumberOfComponents="3" format="ascii">1.5102734067590104e-06 1.1190329247180519e-20 0.0000000000000000e+00  3.2443431470562330e-20 -3.5128405109505420e-20 0.0000000000000000e+00  1.3493383742271301e-18 -7.3907220335258240e-05 0.0000000000000000e+00  -1.5613034061938447e-18 -7.3907220335258105e-05 0.0000000000000000e+00  -1.6130021944784107e-18 7.3907220335258132e-05 0.0000000000000000e+00  1.4268865566539791e-18 7.3907220335258064e-05 0.0000000000000000e+00  2.9583709561886202e-20 2.7704623493009830e-20 0.0000000000000000e+00  1.5510856668861787e-06 -1.1740973412890665e-20 0.0000000000000000e+00  3.5862444114290858e-21 -2.1309110719318954e-22 0.0000000000000000e+00  -3.9813495230582790e-22 2.7599929427199211e-20 0.0000000000000000e+00  1.5357578159718947e-22 -3.0840430067998796e-20 0.0000000000000000e+00  2.9317225617242607e-20 -1.0533418954681352e-22 0.0000000000000000e+00  2.4068187858811900e-20 1.5355012172464437e-22 0.0000000000000000e+00  2.9324109154712404e-20 8.4849852878218752e-23 0.0000000000000000e+00  2.4048823461950246e-20 -9.7257316590345984e-23 0.0000000000000000e+00  2.7964937599497101e-20 7.8437838955356356e-23 0.0000000000000000e+00  2.7761546072320737e-20 3.7275677375949170e-23 0.0000000000000000e+00  2.2437671375285507e-20 -5.7022449152912864e-23 0.0000000000000000e+00  3.4300778812736539e-20 -2.4453825013470269e-23 0.0000000000000000e+00  2.7440000242042892e-20 1.7131389091778084e-22 0.0000000000000000e+00  2.5534897413172991e-20 1.0245483529976817e-22 0.0000000000000000e+00  2.2966997360391985e-20 -5.5278836765463659e-23 0.0000000000000000e+00  2.5081553585717976e-20 -4.9804742088907726e-23 0.0000000000000000e+00  2.8681230432707490e-20 -3.1897015363425488e-22 0.0000000000000000e+00  2.6098789314841647e-20 1.1535994367772997e-22 0.0000000000000000e+00  2.4810129015289543e-20 4.3073140651544347e-23 0.0000000000000000e+00  3.0832128992115394e-20 -1.1073777804785324e-22 0.0000000000000000e+00  2.8406197479285342e-20 8.5521381297877394e-23 0.0000000000000000e+00  2.8345179742044818e-20 1.0173662330844952e-23 0.0000000000000000e+00  2.3007665305211028e-20 -5.2541543365265568e-23 0.0000000000000000e+00  2.6820825860209380e-20 8.9888009306171930e-23 0.0000000000000000e+00  2.6985392295008714e-20 1.4559103186068324e-22 0.0000000000000000e+00  2.4084046684170447e-20 -5.0059427208655596e-23 0.0000000000000000e+00  3.8530563893985270e-06 -5.6330417711557997e-10 0.0000000000000000e+00  3.7005723253475665e-06 1.1574384686097187e-23 0.0000000000000000e+00  2.3599864620806684e-20 1.8133356067466893e-23 0.0000000000000000e+00  3.8529854242984019e-06 1.2989472851999037e-09 0.0000000000000000e+00  2.7470069320125635e-20 -2.5633962256193624e-22 0.0000000000000000e+00  3.8497780720791519e-06 -1.8740383333924100e-09 0.0000000000000000e+00  3.8490429052936790e-06 -2.0964409836920226e-10 0.0000000000000000e+00  2.6257926756979036e-20 1.0915391322382279e-23 0.0000000000000000e+00  2.8502542808624513e-20 -5.4700871898345272e-22 0.0000000000000000e+00  3.8495394152967661e-06 -1.0058927097765821e-10 0.0000000000000000e+00  3.8415106560326261e-06 -1.4991898652809738e-08 0.0000000000000000e+00  2.3337111835069597e-20 -1.0269990868874575e-22 0.0000000000000000e+00  2.5705291037744008e-20 4.9459260421683991e-22 0.0000000000000000e+00  3.8486482982912323e-06 1.1277652000889393e-10 0.0000000000000000e+00  3.8525498615518762e-06 -3.7565973924017857e-10 0.0000000000000000e+00  3.8515110084447825e-06 -3.2410884504299075e-10 0.0000000000000000e+00  -2.1521371169150413e-21 3.3837069121438800e-20 0.0000000000000000e+00  2.9104675845823246e-06 -1.5249854307659224e-07 0.0000000000000000e+00  3.8480443799888191e-06 9.3823205880978786e-10 0.0000000000000000e+00  3.8470412013427066e-06 1.9804726349097094e-10 0.0000000000000000e+00  -2.8918799301503592e-21 -4.1071615111808485e-20 0.0000000000000000e+00  2.6010952855671616e-20 4.7331654313261143e-23 0.0000000000000000e+00  2.9207326869271081e-20 3.5249863343902444e-22 0.0000000000000000e+00  3.8498627341738585e-06 -1.3791753019004449e-09 0.0000000000000000e+00  3.8510863070308861e-06 1.0184236800283877e-09 0.0000000000000000e+00  3.8515399266878048e-06 -9.8266103863019850e-10 0.0000000000000000e+00  3.7924014544811608e-06 -1.2267817316032280e-07 0.0000000000000000e+00  3.8488011678131440e-06 -2.8954055426618838e-09 0.0000000000000000e+00  -1.7352318667817394e-20 4.9455610627693420e-21 0.0000000000000000e+00  1.5434850661194807e-21 -1.6253988737999815e-20 0.0000000000000000e+00  2.1508464195822670e-21 1.6486822764329344e-20 0.0000000000000000e+00  -2.0450264957513789e-20 5.5415927769486663e-21 0.0000000000000000e+00  3.8116794957690497e-06 -3.6822073315655401e-08 0.0000000000000000e+00  2.3122372166753400e-20 -7.1081626714547941e-23 0.0000000000000000e+00  3.7958377060349214e-06 2.1844670532569278e-07 0.0000000000000000e+00  3.8443651045322345e-06 1.0729104002788740e-10 0.0000000000000000e+00  3.8460850494471400e-06 3.2540034667333082e-10 0.0000000000000000e+00  3.8495310082796166e-06 -1.6516940092896551e-09 0.0000000000000000e+00  3.8075249790422539e-06 7.0408413390539608e-08 0.0000000000000000e+00  3.8491073119602932e-06 -7.8008201634707970e-10 0.0000000000000000e+00  2.5625492067501404e-20 -5.1421933837490159e-24 0.0000000000000000e+00  3.8460076764895253e-06 -7.1958782992859342e-11 0.0000000000000000e+00  3.1444842010157492e-20 4.6297171500010700e-22 0.0000000000000000e+00  3.8525440070642576e-06 -2.9352464931067903e-09 0.0000000000000000e+00  1.8412457259298592e-06 1.5012101561385798e-06 0.0000000000000000e+00  -8.2267776958118764e-20 -7.3907220335258511e-05 0.0000000000000000e+00  -1.3208878920071068e-19 7.3907220335258525e-05 0.0000000000000000e+00  1.9070955057317039e-06 -1.8762901681751186e-06 0.0000000000000000e+00  3.8445029976273846e-06 -5.4228340436051428e-09 0.0000000000000000e+00  3.8478671786507468e-06 3.4585332000422166e-09 0.0000000000000000e+00  2.6804844240478285e-20 2.3501279161233231e-22 0.0000000000000000e+00  3.8475365484026422e-06 -1.1869383413339289e-09 0.0000000000000000e+00  2.7729993217816458e-20 1.7543963989674307e-22 0.0000000000000000e+00  3.8482790502035607e-06 -1.2231253985478117e-09 0.0000000000000000e+00  3.0302494108209416e-20 5.7437056294719021e-23 0.0000000000000000e+00  2.7249283140593551e-20 -1.7823362528949509e-24 0.0000000000000000e+00  2.7855711453419699e-20 1.6794123359803088e-22 0.0000000000000000e+00  3.8495215248975888e-06 1.1910222104050162e-09 0.0000000000000000e+00  2.5177688634654702e-20 9.2581220466108482e-23 0.0000000000000000e+00  2.9103961321544997e-20 7.3174185828213119e-23 0.0000000000000000e+00  3.8470960634753454e-06 2.9401879816254924e-10 0.0000000000000000e+00  3.8508427421761853e-06 6.1338520583315185e-10 0.0000000000000000e+00  2.7331437660629951e-20 1.6496906382158297e-23 0.0000000000000000e+00  3.8501055085776162e-06 2.6417758447834250e-09 0.0000000000000000e+00  2.8857356831216419e-20 3.1232764673428514e-22 0.0000000000000000e+00  3.8518862481522715e-06 -4.8895490645911480e-09 0.0000000000000000e+00  2.3593586335929396e-20 1.0419639666171049e-23 0.0000000000000000e+00  3.8437689014775497e-06 2.5913967146753050e-09 0.0000000000000000e+00  2.9203520913312607e-20 -2.9344373908071348e-24 0.0000000000000000e+00  2.6540157933911969e-20 2.5408364399100117e-22 0.0000000000000000e+00  2.6897277579955670e-20 4.5938174315331959e-22 0.0000000000000000e+00  2.8692072775211871e-20 -1.7960647740521122e-22 0.0000000000000000e+00  3.8503460460466154e-06 2.9167173813584983e-09 0.0000000000000000e+00  3.8512462283875024e-06 4.5531131782959512e-09 0.0000000000000000e+00  3.8501229826597823e-06 4.7504638381589235e-10 0.0000000000000000e+00  -8.0879787301777435e-07 -4.2325103511036375e-06 0.0000000000000000e+00  5.0982870346994675e-21 -5.9463643256353458e-20 0.0000000000000000e+00  3.8639466299508123e-06 -3.2733928432509612e-08 0.0000000000000000e+00  3.8556390481379446e-06 -1.0777008338953274e-08 0.0000000000000000e+00  3.8043774284921560e-06 9.3192019511566115e-09 0.0000000000000000e+00  3.8409446679980711e-06 -4.1242470919022356e-09 0.0000000000000000e+00  6.4573930469161434e-07 3.4379975449018037e-06 0.0000000000000000e+00  3.8442967289749804e-06 -6.8386896179756303e-12 0.0000000000000000e+00  3.8524680067560575e-06 -2.7674086357072967e-12 0.0000000000000000e+00  1.0642839563541624e-20 3.0883585351658965e-20 0.0000000000000000e+00  -7.1304076026175906e-07 3.6546364061981755e-06 0.0000000000000000e+00  3.8437625951592027e-06 -2.6344746046364748e-09 0.0000000000000000e+00  6.4334915113419590e-07 -3.9654714488969903e-06 0.0000000000000000e+00  3.8503878290978410e-06 -6.4091141565575933e-10 0.0000000000000000e+00  2.5685392761395282e-20 -2.1610884782941224e-22 0.0000000000000000e+00  3.8429108280263266e-06 -1.1735289341211788e-08 0.0000000000000000e+00  3.8465968865484933e-06 2.3609408884837567e-11 0.0000000000000000e+00  3.8449057704526932e-06 1.7747923364645884e-08 0.0000000000000000e+00  3.8513360828586027e-06 -8.5716134093293911e-10 0.0000000000000000e+00  3.8496742393078270e-06 -4.5474034168602881e-09 0.0000000000000000e+00  3.8434155691782144e-06 -7.0911213054397544e-07 0.0000000000000000e+00  2.7736226424825128e-20 -3.8745224573982290e-22 0.0000000000000000e+00  3.8426732376438499e-06 -1.3717149544921194e-09 0.0000000000000000e+00  3.8730226678319743e-22 -3.7090110477663269e-20 0.0000000000000000e+00  2.6455099561995912e-22 3.2801249879495030e-20 0.0000000000000000e+00  -8.8472121410973898e-06 -9.6834486755451343e-06 0.0000000000000000e+00  -7.1930921271830105e-06 7.9515216718632854e-06 0.0000000000000000e+00  2.5660411129743147e-20 8.5787551285388469e-24 0.0000000000000000e+00  2.9732642880903056e-20 4.3666384314172848e-22 0.0000000000000000e+00  2.4077490038007371e-20 4.4153662580091670e-23 0.0000000000000000e+00  3.8428549487200463e-06 4.6846159824083171e-09 0.0000000000000000e+00  3.8444622420300174e-06 2.8257869211826172e-09 0.0000000000000000e+00  3.4972678578546678e-06 -9.3550443532768317e-22 0.0000000000000000e+00  2.5378240677364729e-20 -9.5048844245469344e-22 0.0000000000000000e+00  3.8443899778493601e-06 1.0809643258701893e-09 0.0000000000000000e+00  2.7172937894579846e-20 1.8403541197540849e-22 0.0000000000000000e+00  2.5815335024178318e-20 -5.2307977467941526e-23 0.0000000000000000e+00  3.8481744950361626e-06 -4.9070898558811754e-10 0.0000000000000000e+00  3.8523529812562090e-06 4.1261508157709493e-10 0.0000000000000000e+00  3.4932739087407171e-06 1.2650058617731107e-21 0.0000000000000000e+00  2.7364850235816382e-20 -3.4044695230049109e-22 0.0000000000000000e+00  1.4316262660475564e-06 -1.4132902364598786e-07 0.0000000000000000e+00  2.8930717275077064e-20 9.0066035077477126e-22 0.0000000000000000e+00  3.3670891321092790e-20 -1.3440772151169698e-21 0.0000000000000000e+00  3.8483402711787461e-06 -1.7237987058602433e-09 0.0000000000000000e+00  3.8348959628309739e-06 -4.6629134087615457e-09 0.0000000000000000e+00  3.8534057919530423e-06 2.6440256599616764e-11 0.0000000000000000e+00  3.8461343945667154e-06 2.4267851564750521e-09 0.0000000000000000e+00  2.7802904361976586e-20 3.0651758669398062e-23 0.0000000000000000e+00  3.1176465232414743e-20 6.6443408784615519e-23 0.0000000000000000e+00  2.6122362303008515e-20 -5.0252492460472946e-22 0.0000000000000000e+00  2.5285873082755463e-20 4.7348821713623014e-22 0.0000000000000000e+00  3.8454206561843712e-06 -6.1895847319809481e-10 0.0000000000000000e+00  3.8458993857257477e-06 1.4562212120964975e-09 0.0000000000000000e+00  3.8449950033785206e-06 -1.2704227055999959e-09 0.0000000000000000e+00  3.4862304719747086e-06 1.0389568249582945e-06 0.0000000000000000e+00  3.8503438311707979e-06 -1.1069179377244227e-09 0.0000000000000000e+00  3.8440566330341421e-06 1.2443192436565664e-09 0.0000000000000000e+00  3.8493980207015643e-06 1.1287789141159500e-09 0.0000000000000000e+00  3.8279885129298087e-06 4.3038924638124021e-09 0.0000000000000000e+00  3.8476471878693256e-06 2.5776524871443830e-10 0.0000000000000000e+00  3.8354730647265168e-06 1.0575111147446536e-09 0.0000000000000000e+00  3.8444283851008519e-06 6.9172039455137101e-10 0.0000000000000000e+00  3.8279488689825600e-06 2.8069600241835546e-10 0.0000000000000000e+00  3.8488495969114907e-06 -3.6940595058029344e-09 0.0000000000000000e+00  3.8373664213105476e-06 2.2518126415498888e-09 0.0000000000000000e+00  3.8338204689466743e-06 -1.4175538054279237e-09 0.0000000000000000e+00  3.8426435115162872e-06 1.5742851020856613e-09 0.0000000000000000e+00  3.8480718405136729e-06 4.7987163018081418e-09 0.0000000000000000e+00  3.8221363019129911e-06 -4.4497997424809812e-09 0.0000000000000000e+00  3.8218056670089268e-06 4.1629168281651191e-09 0.0000000000000000e+00  3.8280753852390155e-06 -5.9378215550194909e-10 0.0000000000000000e+00  3.8201930421228090e-06 -2.7831979382947626e-09 0.0000000000000000e+00  3.8299300791619518e-06 -2.3417183096927592e-09 0.0000000000000000e+00  3.8486116834848324e-06 -1.0477256928660207e-09 0.0000000000000000e+00  3.8508208776906451e-06 -7.1121000860381654e-10 0.0000000000000000e+00  3.8525106819028593e-06 9.0365782751167364e-10 0.0000000000000000e+00  3.8338349892725297e-06 -3.6315125443037266e-09 0.0000000000000000e+00  3.5284922317738777e-06 -2.1660318566592961e-07 0.0000000000000000e+00  3.9413986859125512e-06 -1.1704536438433529e-07 0.0000000000000000e+00  3.8258898491232679e-06 -3.7564521124704587e-08 0.0000000000000000e+00  3.8500002109223072e-06 -1.1742392833544541e-09 0.0000000000000000e+00  3.8520501141042528e-06 -2.5853880992450018e-09 0.0000000000000000e+00  3.8521498103075915e-06 -6.1028477145949891e-10 0.0000000000000000e+00  2.4836998197492437e-21 -9.9347992789969747e-21 0.0000000000000000e+00  3.5887948031856303e-21 8.1804413106963338e-21 0.0000000000000000e+00  3.8500932574978658e-06 1.8536337865780442e-09 0.0000000000000000e+00  3.8492600208824304e-06 -6.1495341837827461e-09 0.0000000000000000e+00  3.8527438782987296e-06 7.4949999583085818e-10 0.0000000000000000e+00  3.8229771939971003e-06 1.7088566726678327e-09 0.0000000000000000e+00  3.8303992965391210e-06 2.0623067769930473e-09 0.0000000000000000e+00  3.8514361565264602e-06 -5.1771853375479685e-08 0.0000000000000000e+00  3.8025898386767658e-06 -2.3899810866189487e-07 0.0000000000000000e+00  3.7518082698841635e-06 4.1076833170559285e-09 0.0000000000000000e+00  3.8251173153784215e-06 3.3376732063249608e-09 0.0000000000000000e+00  3.8260575045576362e-06 -3.2947476896494394e-10 0.0000000000000000e+00  3.6770499115693129e-06 1.5861323782640321e-09 0.0000000000000000e+00  3.8364778131971041e-06 5.0407156411587609e-08 0.0000000000000000e+00  3.8491565467775797e-06 -5.3651462121391717e-10 0.0000000000000000e+00  3.8113035446818056e-06 4.5220867019553435e-09 0.0000000000000000e+00  2.9786200289985449e-08 -4.5327146376903889e-06 0.0000000000000000e+00  3.8498152459795827e-06 2.3789234458642303e-09 0.0000000000000000e+00  4.3214540506237922e-08 3.9240752918528839e-06 0.0000000000000000e+00  -1.6213484860492787e-19 -1.6764250585644183e-19 0.0000000000000000e+00  -3.1769412885227300e-21 2.2692437775162358e-20 0.0000000000000000e+00  1.5222313206520191e-21 2.6055456213915184e-20 0.0000000000000000e+00  1.3363409888887374e-21 -2.6686138246785567e-20 0.0000000000000000e+00  -3.0916416488223410e-21 -2.7850755021323947e-20 0.0000000000000000e+00  -1.7193556168819484e-19 1.4958377849058789e-19 0.0000000000000000e+00  3.8370097773207952e-06 -2.6647048488308166e-09 0.0000000000000000e+00  3.7007905911762121e-06 -2.5387624608413988e-09 0.0000000000000000e+00  3.7012787219911863e-06 -8.9036408730082673e-09 0.0000000000000000e+00  3.6972610986330947e-06 1.3012513169672528e-09 0.0000000000000000e+00  3.6991549152412355e-06 -5.0910067757870954e-10 0.0000000000000000e+00  3.6960297044686845e-06 4.0724960884502270e-09 0.0000000000000000e+00  3.8171613634301015e-06 5.0553883950291567e-09 0.0000000000000000e+00  3.8336465992060393e-06 5.5796850929245242e-08 0.0000000000000000e+00  3.8183865497913913e-06 -6.6594302247440481e-10 0.0000000000000000e+00  3.8450198954146280e-06 -2.1997036335735195e-09 0.0000000000000000e+00  3.8506750573609740e-06 1.0828878531741122e-09 0.0000000000000000e+00  3.8519236150254120e-06 -8.4768876279127988e-10 0.0000000000000000e+00  -6.9796469407322967e-07 5.6904190137221676e-06 0.0000000000000000e+00  -1.4261341275066451e-06 -5.9278035809840161e-06 0.0000000000000000e+00  3.7080347981372639e-06 -1.2621453547466742e-08 0.0000000000000000e+00  3.8105800735548883e-06 4.7653850788835417e-09 0.0000000000000000e+00  3.8523522354972560e-06 -7.7352989257403081e-10 0.0000000000000000e+00  3.8515238026697583e-06 -8.7947784390819993e-10 0.0000000000000000e+00  2.6840297869790619e-20 3.1343593053260601e-22 0.0000000000000000e+00  3.4066601476971173e-06 2.4773076458997113e-07 0.0000000000000000e+00  1.5830780670382406e-05 1.8533961456125927e-05 0.0000000000000000e+00  1.6079410026402364e-05 -1.9771172661517744e-05 0.0000000000000000e+00  3.8537786878101181e-06 -6.1928415449984995e-10 0.0000000000000000e+00  3.6695345914319533e-06 3.6972402961322007e-09 0.0000000000000000e+00  2.6510570850674162e-20 7.8171134840822387e-23 0.0000000000000000e+00  3.6861423028618688e-06 -5.9298871144357497e-09 0.0000000000000000e+00  3.8538145846100389e-06 6.7989981192348680e-10 0.0000000000000000e+00  3.8012187822813499e-06 3.0591768963529330e-07 0.0000000000000000e+00  3.8471972265276889e-06 1.5755782830327660e-10 0.0000000000000000e+00  2.8887994528464179e-20 -2.6922205231852933e-22 0.0000000000000000e+00  3.8517709179355779e-06 1.5465937432677154e-09 0.0000000000000000e+00  3.8502926260620955e-06 -1.7169803767000256e-09 0.0000000000000000e+00  3.8185924699351335e-06 -1.3024852001014364e-09 0.0000000000000000e+00  3.8289252955376709e-06 7.3009052072674936e-10 0.0000000000000000e+00  3.8194485679040331e-06 -2.8953322254863541e-09 0.0000000000000000e+00  2.7895587405783904e-20 2.3369722934138405e-22 0.0000000000000000e+00  3.8311733481055667e-06 -1.1143065310224152e-09 0.0000000000000000e+00  3.8521712844571731e-06 3.0668748944751892e-09 0.0000000000000000e+00  3.7056422187163923e-06 8.6946676175054721e-09 0.0000000000000000e+00  3.8515624985852742e-06 -1.6655615201876758e-10 0.0000000000000000e+00  3.8521061234782410e-06 -1.9078976479578862e-08 0.0000000000000000e+00  3.8486895498503146e-06 5.3215093261580677e-10 0.0000000000000000e+00  3.8491808624694669e-06 -9.0455517391481849e-10 0.0000000000000000e+00  3.7150723219174486e-06 -5.8201929454382693e-08 0.0000000000000000e+00  3.8286439133030121e-06 2.3349397124921363e-09 0.0000000000000000e+00  3.8271416731865861e-06 -3.4259505736537932e-09 0.0000000000000000e+00  3.8233163683723612e-06 -2.4763378072397778e-09 0.0000000000000000e+00  3.8300081962795262e-06 -6.2337371035434187e-09 0.0000000000000000e+00  3.8484352453966809e-06 1.1894140720764523e-09 0.0000000000000000e+00  2.8764730155606194e-20 -3.3376688843552288e-22 0.0000000000000000e+00  3.5632914641311408e-06 -2.0608518921476442e-06 0.0000000000000000e+00  2.1043967893184927e-06 -3.8793999395170013e-06 0.0000000000000000e+00  8.9729289463464243e-07 -2.9160453149940761e-06 0.0000000000000000e+00  2.7538540930681606e-06 -9.8696035106913980e-07 0.0000000000000000e+00  3.8527439020310994e-06 2.0100917257586205e-10 0.0000000000000000e+00  3.8495879474741741e-06 -2.0314717891233793e-09 0.0000000000000000e+00  3.8491117183558594e-06 3.2710397195060742e-10 0.0000000000000000e+00  3.8490253829968585e-06 -7.3605904893660023e-10 0.0000000000000000e+00  3.8439481971611048e-06 -8.2502775400056839e-09 0.0000000000000000e+00  3.8264619271318527e-06 8.5249428559828148e-09 0.0000000000000000e+00  3.0560428001381697e-20 3.7069598110228619e-23 0.0000000000000000e+00  3.8237195778220180e-06 5.3374988404961806e-09 0.0000000000000000e+00  3.8491567251984344e-06 -1.1401203511096463e-09 0.0000000000000000e+00  3.8490450712161946e-06 1.8002500880390945e-11 0.0000000000000000e+00  3.8228294492352681e-06 3.4309298818597243e-09 0.000000