<?xml version="1.0"?>
<VTKFile type="UnstructuredGrid"  version="0.1"  >
<UnstructuredGrid>
<Piece  NumberOfPoints="1079" NumberOfCells="1944">
<Points>
<DataArray  type="Float64"  NumberOfComponents="3"  format="ascii">0.08500000000000001 0.02 0  0.005 0.02 0  0.005 0.03 0  0 0.03 0  0 0 0  0.005 0 0  0.005 0.01 0  0.08500000000000001 0.01 0  0 0.015 0  0 0.0075 0  0 0.0225 0  0.04500000000000001 0.02 0  0.04500000000000001 0.01 0  0.025 0.01 0  0.025 0.02 0  0.065 0.02 0  0.065 0.01 0  0.035 0.02 0  0.035 0.01 0  0.07500000000000001 0.02 0  0.07500000000000001 0.01 0  0.015 0.02 0  0.015 0.01 0  0.05500000000000001 0.01 0  0.05500000000000001 0.02 0  0.07000000000000001 0.01 0  0.07000000000000001 0.02 0  0.05 0.01 0  0.03 0.01 0  0.03 0.02 0  0.04000000000000001 0.01 0  0.01 0.01 0  0.02 0.02 0  0.06 0.015 0  0.08500000000000001 0.015 0  0.05 0.02 0  0.07250000000000001 0.015 0  0.04000000000000001 0.02 0  0.03750000000000001 0.015 0  0.0525 0.015 0  0.02 0.01 0  0.01 0.02 0  0.0275 0.015 0  0.0125 0.015 0  0.08000000000000002 0.01 0  0.08000000000000002 0.02 0  0.0325 0.014375 0  0.04291666666666667 0.015 0  0.065 0.015 0  0.005 0.005 0  0.005 0.015 0  0.02208333333333334 0.015 0  0.07791666666666668 0.015 0  0.005 0.025 0  0.06 0.01 0  0.06 0.02 0  0.01729166666666667 0.01572916666666667 0  0.04770833333333334 0.01427083333333334 0  0.06875000000000001 0.01625 0  0.008750000000000001 0.01625 0  0.05625000000000001 0.01625 0  0 0.00375 0  0 0.01875 0  0 0.01125 0  0 0.02625 0  0.08145833333333334 0.01354166666666667 0  0.0675 0.01 0  0.0075 0.0125 0  0.0625 0.0175 0  0.0575 0.0125 0  0.0625 0.0125 0  0.08207465277777778 0.01707465277777778 0  0.06767857142857144 0.01321428571428571 0  0.0175 0.01 0  0.01875 0.01291382575757576 0  0.0475 0.02 0  0.04564168086314595 0.01679860519591141 0  0.00296875 0.0125 0  0.0025 0.03 0  0.0025 0 0  0.00296875 0.0175 0  0.01521990740740741 0.0132349537037037 0  0.0497800925925926 0.0167650462962963 0  0.0325 0.02 0  0.03474264705882353 0.01674632352941176 0  0.03750000000000001 0.02 0  0.03025735294117647 0.01674632352941176 0  0.0275 0.02 0  0.0525 0.02 0  0.0125 0.01 0  0.04020833333333334 0.01322916666666667 0  0.03750000000000001 0.01 0  0.0225 0.02 0  0.02479166666666667 0.01677083333333333 0  0.07520833333333335 0.01322916666666667 0  0.07250000000000001 0.01 0  0.07520833333333335 0.01677083333333334 0  0.07250000000000001 0.02 0  0.04020833333333334 0.01677083333333333 0  0.0225 0.01 0  0.02375 0.01262152777777778 0  0.04250000000000001 0.02 0  0.04250000000000001 0.01 0  0.07750000000000001 0.01 0  0.07750000000000001 0.02 0  0.05036151960784314 0.01294424019607843 0  0.0705560064935065 0.01284699675324675 0  0.05458333333333334 0.01291666666666666 0  0.0021875 0.024375 0  0.005 0.0275 0  0.01125 0.0175 0  0.01463848039215686 0.01705575980392157 0  0.01 0.01375 0  0.03625 0.0125 0  0.0021875 0.009375 0  0.05375000000000001 0.0175 0  0.07125000000000001 0.0175 0  0.005 0.0025 0  0.0021875 0.005625 0  0.02655220103578155 0.01234889948210923 0  0.002187499999999999 0.020625 0  0.02979166666666667 0.01302083333333333 0  0.0525 0.01 0  0.07895833333333334 0.0125 0  0.01994277885235332 0.01704213007736944 0  0.07934656179076068 0.01733823814273861 0  0.04505722114764669 0.01295786992263056 0  0.06625 0.0175 0  0.006250000000000001 0.0175 0  0.05750000000000001 0.02 0  0.05875000000000001 0.0175 0  0.005 0.0225 0  0.005 0.0075 0  0.002375 0.027375 0  0.002375 0.002625000000000001 0  0.0475 0.01 0  0.0175 0.02 0  0.0325 0.01 0  0.03375 0.0121875 0  0.04261299435028249 0.01749205508474576 0  0.08500000000000001 0.0125 0  0.08250000000000002 0.01 0  0.02121963399965531 0.01224824108143494 0  0.0675 0.02 0  0.0125 0.02 0  0.02720152243589744 0.0175 0  0.03715165441176471 0.0175 0  0.08500000000000001 0.0175 0  0.0275 0.01 0  0.0025 0.0149560546875 0  0.0075 0.01 0  0.0075 0.02 0  0.06526785714285716 0.0125 0  0.01281031447005516 0.0125 0  0.0625 0.015 0  0.06 0.0125 0  0.05750000000000001 0.01 0  0.0625 0.02 0  0.0625 0.01 0  0.08250000000000002 0.02 0  0.04260103740101855 0.01252623201412851 0  0.02240052247582197 0.01750164767101344 0  0.07293583459427785 0.01238479732953041 0  0.005234374999999999 0.012265625 0  0.03528131980640358 0.01454684009679821 0  0.0325 0.01760027210036557 0  0.02532593822924343 0.01428227733767297 0  0.08009952069819683 0.01527145502895417 0  0.01987282359856536 0.01482587683689801 0  0.04828232595121382 0.01210233572595705 0  0.01671767404878618 0.01789766427404295 0  0.05125 0.01829007549029352 0  0.05247215456215357 0.01288882122882024 0  0.07338729919678716 0.01799385040160642 0  0.03838729919678716 0.01200614959839357 0  0.07717482110586968 0.01780301674207099 0  0.04771860040890012 0.01773306039388322 0  0.03125 0.01160380747126437 0  0.06875000000000001 0.01154265873015873 0  0.07625000000000001 0.01154065860215054 0  0.01625 0.01153997817696946 0  0.068125 0.018125 0  0.05437500000000001 0.015625 0  0.066875 0.015625 0  0.07039794950204951 0.01494384850614853 0  0.05687500000000001 0.018125 0  0.006875 0.015625 0  0.008749999999999999 0.01833333333333333 0  0.010625 0.015625 0  0.05625 0.01416666666666667 0  0.05812500000000001 0.015625 0  0.0449088595298192 0.01494528408816316 0  0 0.016875 0  0 0.013125 0  0.04962452342047931 0.01478673066448802 0  0.0153754765795207 0.01521326933551198 0  0.0771774565913315 0.01322498191305479 0  0.01857756431135545 0.01840228599899994 0  0.04642243568864456 0.01159771400100006 0  0.08125000000000002 0.01155637254901961 0  0.08317650804863432 0.0118234919513657 0  0.08288217288011697 0.01511353252923977 0  0.02837253504384828 0.0117177464035174 0  0.03896057962520807 0.01831163685754031 0  0.01125 0.0114244162490927 0  0.00935910490099115 0.0119067901980177 0  0.02946078431372549 0.01495404411764706 0  0.02875 0.0185829434466942 0  0.002968749999999999 0.0225 0  0.064375 0.016875 0  0.00296875 0.0075 0  0 0.001875 0  0 0.005625 0  0 0.009375 0  0 0.020625 0  0 0.024375 0  0 0.028125 0  0.06062500000000001 0.01812500000000001 0  0.008303571428571429 0.01446428571428572 0  0.01375 0.01865917058160413 0  0.05137790313978056 0.01143372888932909 0  0.04125000000000001 0.01131513063942604 0  0.04101690263896279 0.01844430285842771 0  0.02399563533148224 0.01844349395710867 0  0.08125000000000002 0.01868815426145731 0  0.05354684380692146 0.01145463537600848 0  0.01699195823639423 0.01315138909884649 0  0.07598357371794873 0.015 0  0.04098357371794872 0.015 0  0.003744047619047619 0.00375 0  0.003344630281690141 0.02580853873239437 0  0.04625 0.0187354532243972 0  0.06388392857142858 0.01138392857142858 0  0.06375 0.01375 0  0.05875 0.01375 0  0.06375 0.02 0  0.00622802734375 0.01372802734375 0  0.003630681818181818 0.001369318181818182 0  0.003630681818181818 0.02863068181818182 0  0.06125 0.01625 0  0.06125 0.01125 0  0.05625000000000001 0.01 0  0.05875 0.01125 0  0.06125 0.01375 0  0.08337864763241221 0.0183786476324122 0  0.05213634138653413 0.01674432930673294 0  0.04375000000000001 0.01 0  0.07424178685897437 0.01529258578431373 0  0.03924178685897436 0.01529258578431372 0  0.03410139294454583 0.01843406022904556 0  0.03089860705545417 0.01843406022904556 0  0.02094160484316717 0.01850229584291991 0  0.04375000000000001 0.02 0  0.04437042160883325 0.01820701498672512 0  0.04816311705429156 0.01600061344661149 0  0.07151224904251052 0.0114127410511319 0  0.04395528506193162 0.01639387970349481 0  0.0128750358694518 0.0167500179347259 0  0.02855808448399799 0.01642839899839741 0  0.02812690373330794 0.01340955081400569 0  0.08358500641945087 0.01351822349116885 0  0.05590277777777778 0.01173611111111111 0  0.06683110430364615 0.01164926404662283 0  0.02573206694914602 0.01842532451809762 0  0.01438126661842046 0.01166701193099454 0  0.02384283211216029 0.01526549696571563 0  0.03625 0.02 0  0.004609375000000001 0.0182421875 0  0.003398437500000001 0.01943359375 0  0.001728307845744682 0.01894718251329787 0  0.004377805359085963 0.01656966216675735 0  0.04649673309852075 0.0153889662370871 0  0.03615513600614297 0.01592654988586041 0  0.03316985071935832 0.01598763605018279 0  0.03110111603888768 0.01529816275177977 0  0.01370614113484869 0.0138804542047638 0  0.04930041102671841 0.01842260568883502 0  0.07875000000000001 0.02 0  0.0745395359848485 0.01165101111925709 0  0.03860755698543604 0.01373741558556884 0  0.02605038706571737 0.01573944002207753 0  0.07559826163500957 0.01841729376139847 0  0.04437500000000001 0.01149157931286774 0  0.06874116707361365 0.01454618473032123 0  0.003761917372881356 0.0239307468220339 0  0.003984374999999999 0.01125 0  0.003768503289473684 0.01392539576480263 0  0.001796875 0.0111328125 0  0.003761917372881356 0.008930746822033899 0  0.005 0.00625 0  0.003761917372881355 0.0210692531779661 0  0.06633928571428571 0.01410714285714285 0  0.006484375 0.01125 0  0.08364120589325512 0.01657288979763549 0  0.03576267476503373 0.0184116442851204 0  0.07370875846579374 0.0137848203678562 0  0.06964285714285715 0.01758928571428571 0  0.05520833333333334 0.01833333333333333 0  0.06491071428571429 0.01839285714285714 0  0.0510098951944636 0.01559941474766356 0  0.01786087179886325 0.0115702210443714 0  0.01972197383235524 0.01160576093166696 0  0.01804697593127788 0.01433503795474974 0  0.001644074528704677 0.01642892723865279 0  0.00125 0.03 0  0.001497685185185185 0.001267746913580247 0  0.07315451164202422 0.01643443118912983 0  0.001233906745910645 0.0140625 0  0.01162635071030191 0.01362229857939618 0  0.01528023503083844 0.01845923557506155 0  0.06625 0.02 0  0.07695012019230771 0.01624387078484555 0  0.03139091092855769 0.01320776147621796 0  0.03857339107781042 0.01675295051810485 0  0.001754993120977522 0.02590789105493891 0  0.002288757784711197 0.00412546923654445 0  0.07914382119690884 0.01404430049871201 0  0.001391810103286306 0.01257390899021902 0  0.0419501201923077 0.01614675005432421 0  0.001484375 0.007018229166666667 0  0.001484375 0.02201822916666666 0  0.048
[...]
<PointData  Vectors="velocity"> 
<DataArray  type="Float64"  Name="velocity"  NumberOfComponents="3" format="ascii">4.2633909340065993e-06 3.2182406740066601e-20 0.0000000000000000e+00  9.0394112511084007e-20 -1.0131300530945257e-19 0.0000000000000000e+00  3.7533320294593731e-18 -2.0565123083486641e-04 0.0000000000000000e+00  -4.1359030627651515e-18 -2.0565123083486614e-04 0.0000000000000000e+00  -4.1772620933928075e-18 2.0565123083486622e-04 0.0000000000000000e+00  3.9394476672838120e-18 2.0565123083486601e-04 0.0000000000000000e+00  8.2818566607740247e-20 7.9550007405763325e-20 0.0000000000000000e+00  4.3785126164448792e-06 -3.3141187364045991e-20 0.0000000000000000e+00  9.6980130562589374e-21 -6.4400867951719505e-22 0.0000000000000000e+00  -1.0848921579541841e-21 7.9455045288961524e-20 0.0000000000000000e+00  4.5081235160271826e-22 -9.2786154425458572e-20 0.0000000000000000e+00  8.3736458538046825e-20 -3.1862953683110520e-22 0.0000000000000000e+00  7.1419807947604849e-20 4.1656276844745008e-22 0.0000000000000000e+00  8.0804211892985287e-20 2.4436757628927003e-22 0.0000000000000000e+00  6.8041432862277024e-20 -2.8768992920312768e-22 0.0000000000000000e+00  7.6115093315924445e-20 1.9835327861485403e-22 0.0000000000000000e+00  7.9469435201545164e-20 1.0303769990747284e-22 0.0000000000000000e+00  6.3317717564935931e-20 -1.5287784557000947e-22 0.0000000000000000e+00  9.2658034014223980e-20 -1.4286224138233073e-22 0.0000000000000000e+00  7.8347533853127601e-20 4.8279337384536094e-22 0.0000000000000000e+00  7.3136990121680667e-20 2.9357250883972032e-22 0.0000000000000000e+00  6.4493184506959304e-20 -1.7489861468417192e-22 0.0000000000000000e+00  6.4488736494935702e-20 -1.5726484269977059e-22 0.0000000000000000e+00  8.2028319037543423e-20 -9.0568022356065125e-22 0.0000000000000000e+00  7.4376526765338574e-20 3.3860542903651903e-22 0.0000000000000000e+00  7.2544236886811531e-20 1.2581891085056374e-22 0.0000000000000000e+00  8.5185675978215727e-20 -3.2732442032645060e-22 0.0000000000000000e+00  8.0083953167500444e-20 2.5553573396153316e-22 0.0000000000000000e+00  7.9870031738686774e-20 4.5442358411107451e-23 0.0000000000000000e+00  6.5510583105725124e-20 -1.6989141417432699e-22 0.0000000000000000e+00  7.4036884729485158e-20 2.5374508879005433e-22 0.0000000000000000e+00  7.3332501034866739e-20 4.5189943655458818e-22 0.0000000000000000e+00  6.8567149303020784e-20 -1.4728653037514587e-22 0.0000000000000000e+00  1.0872712172204767e-05 -1.5886336373413820e-09 0.0000000000000000e+00  1.0442258365867601e-05 1.8543545542252335e-23 0.0000000000000000e+00  6.6724820088034975e-20 4.5740226509245660e-23 0.0000000000000000e+00  1.0872511239325173e-05 3.6654604093949222e-09 0.0000000000000000e+00  7.9944945329083575e-20 -7.3462625285191749e-22 0.0000000000000000e+00  1.0863461274595713e-05 -5.2879723217779138e-09 0.0000000000000000e+00  1.0861386213563521e-05 -5.9210416336947822e-10 0.0000000000000000e+00  7.2954455962633650e-20 2.8639907707774459e-23 0.0000000000000000e+00  7.4850155897431321e-20 -1.4987070743121855e-21 0.0000000000000000e+00  1.0862787317988659e-05 -2.7823415481321531e-10 0.0000000000000000e+00  1.0840131432580063e-05 -4.1421732312826730e-08 0.0000000000000000e+00  6.7943490152734266e-20 -3.0175310249558444e-22 0.0000000000000000e+00  7.6734241211522720e-20 1.3451316444675782e-21 0.0000000000000000e+00  1.0860273481252892e-05 3.1946987804028109e-10 0.0000000000000000e+00  1.0871283252141634e-05 -1.0597691861123633e-09 0.0000000000000000e+00  1.0868349932298546e-05 -9.1467849552972750e-10 0.0000000000000000e+00  -5.7970861068347361e-21 9.6336126204566943e-20 0.0000000000000000e+00  8.2130013610952566e-06 -4.2214276846958017e-07 0.0000000000000000e+00  1.0858568687021690e-05 2.6841640923700658e-09 0.0000000000000000e+00  1.0855730882522815e-05 5.5889010785870742e-10 0.0000000000000000e+00  -7.9641416025226062e-21 -1.1975854802042519e-19 0.0000000000000000e+00  6.9147129330605295e-20 1.0728508311005859e-22 0.0000000000000000e+00  8.1095694095177174e-20 9.8080888141351630e-22 0.0000000000000000e+00  1.0863650114161929e-05 -3.7197731925385216e-09 0.0000000000000000e+00  1.0867151725683915e-05 2.8739273071964256e-09 0.0000000000000000e+00  1.0868432820516366e-05 -2.7722105845971038e-09 0.0000000000000000e+00  1.0700436770708149e-05 -3.4341657408863549e-07 0.0000000000000000e+00  1.0860705995168620e-05 -8.1716777313097707e-09 0.0000000000000000e+00  -4.5867373788271628e-20 1.5066848330471411e-20 0.0000000000000000e+00  4.5213560221900893e-21 -4.0749436554422073e-20 0.0000000000000000e+00  5.8315835978632172e-21 4.7228627656768776e-20 0.0000000000000000e+00  -5.6345485267555472e-20 1.2727787281249840e-20 0.0000000000000000e+00  1.0755923861020542e-05 -1.0393114536842278e-07 0.0000000000000000e+00  6.5399372163953404e-20 -1.8438467080089504e-22 0.0000000000000000e+00  1.0714518108963895e-05 6.1966288326428752e-07 0.0000000000000000e+00  1.0848189820964240e-05 3.1267217557305117e-10 0.0000000000000000e+00  1.0853044691805579e-05 9.1426013228135231e-10 0.0000000000000000e+00  1.0862765754361217e-05 -4.6664075058626073e-09 0.0000000000000000e+00  1.0744195118321103e-05 1.9871987027720900e-07 0.0000000000000000e+00  1.0861567376651136e-05 -2.2007298665384888e-09 0.0000000000000000e+00  7.1976346740126116e-20 -1.4054435508095561e-23 0.0000000000000000e+00  1.0852890213111828e-05 -1.2009706856465672e-10 0.0000000000000000e+00  8.8965894467762660e-20 1.3181907854867850e-21 0.0000000000000000e+00  1.0871267236950232e-05 -8.2806271758917269e-09 0.0000000000000000e+00  5.1986034852888843e-06 4.2487035124089328e-06 0.0000000000000000e+00  -2.3538466697702905e-19 -2.0565123083486717e-04 0.0000000000000000e+00  -3.8041828315976807e-19 2.0565123083486728e-04 0.0000000000000000e+00  5.3790415463708922e-06 -5.2822970212775798e-06 0.0000000000000000e+00  1.0848778510931424e-05 -1.5005950828084892e-08 0.0000000000000000e+00  1.0858065882541347e-05 9.7579857276065532e-09 0.0000000000000000e+00  7.1919848989094474e-20 6.6469971058872402e-22 0.0000000000000000e+00  1.0857135252343342e-05 -3.3506095035795179e-09 0.0000000000000000e+00  7.9019231108934656e-20 4.9348532758958023e-22 0.0000000000000000e+00  1.0859230872207056e-05 -3.4497011171591229e-09 0.0000000000000000e+00  8.2245472278157933e-20 1.6779315535104278e-22 0.0000000000000000e+00  7.2579992740695651e-20 -8.8923188331347298e-24 0.0000000000000000e+00  7.8450702763551650e-20 4.4222161856414227e-22 0.0000000000000000e+00  1.0862736458097558e-05 3.3613310233421604e-09 0.0000000000000000e+00  7.1846002806411495e-20 2.5108904449764248e-22 0.0000000000000000e+00  7.9154720645011112e-20 2.2096550489989538e-22 0.0000000000000000e+00  1.0855884941430546e-05 8.4058258190664203e-10 0.0000000000000000e+00  1.0866463993731929e-05 1.7321816897321043e-09 0.0000000000000000e+00  7.7503304507881366e-20 3.5027250720348428e-23 0.0000000000000000e+00  1.0864386351823402e-05 7.4541636489595740e-09 0.0000000000000000e+00  8.4523373761209962e-20 8.8977402798457122e-22 0.0000000000000000e+00  1.0869409065111071e-05 -1.3799618253308211e-08 0.0000000000000000e+00  6.8226039468228957e-20 2.7003009839091167e-23 0.0000000000000000e+00  1.0846522765597252e-05 7.3234696334226930e-09 0.0000000000000000e+00  8.0004501022965720e-20 2.9344373908071348e-24 0.0000000000000000e+00  6.8790907850597279e-20 6.6948029904122724e-22 0.0000000000000000e+00  7.7147364773644847e-20 1.3767557765691681e-21 0.0000000000000000e+00  8.4975932349005070e-20 -5.1460189982735622e-22 0.0000000000000000e+00  1.0865060977751684e-05 8.2285647807728805e-09 0.0000000000000000e+00  1.0867604395955841e-05 1.2847590059418951e-08 0.0000000000000000e+00  1.0864433133083395e-05 1.3430667046356461e-09 0.0000000000000000e+00  -2.2528354237664087e-06 -1.1932033569145865e-05 0.0000000000000000e+00  1.3988363655899889e-20 -1.6246410373387846e-19 0.0000000000000000e+00  1.0902430135113132e-05 -9.1431935526565017e-08 0.0000000000000000e+00  1.0879727977122282e-05 -3.0078931775925638e-08 0.0000000000000000e+00  1.0736196242993105e-05 2.8112013539389487e-08 0.0000000000000000e+00  1.0838548206335785e-05 -1.1642486693451690e-08 0.0000000000000000e+00  1.8253030947981353e-06 9.7190073073037638e-06 0.0000000000000000e+00  1.0847987795699609e-05 -1.8290668468321891e-11 0.0000000000000000e+00  1.0871050197853950e-05 3.0560547593111885e-12 0.0000000000000000e+00  3.0341768064787760e-20 8.8084010351348128e-20 0.0000000000000000e+00  -1.9903545482726666e-06 1.0335745268320651e-05 0.0000000000000000e+00  1.0846485147014219e-05 -7.4386496883972654e-09 0.0000000000000000e+00  1.8159084177351988e-06 -1.1173057382653275e-05 0.0000000000000000e+00  1.0865182826397191e-05 -1.8006462318390390e-09 0.0000000000000000e+00  7.2030919728248038e-20 -5.8416542945535326e-22 0.0000000000000000e+00  1.0844109690386617e-05 -3.3139954279305497e-08 0.0000000000000000e+00  1.0854439583757850e-05 1.2193800740968742e-10 0.0000000000000000e+00  1.0849709709528206e-05 5.0096302896557360e-08 0.0000000000000000e+00  1.0867856870498007e-05 -2.4163758278414946e-09 0.0000000000000000e+00  1.0863164781795071e-05 -1.2834466974144489e-08 0.0000000000000000e+00  1.0841312399809560e-05 -1.9954521220779613e-06 0.0000000000000000e+00  8.3002907731616679e-20 -1.0899273422669019e-21 0.0000000000000000e+00  1.0843399855636550e-05 -3.8551041981179289e-09 0.0000000000000000e+00  1.0217583028339120e-21 -9.7937285182849420e-20 0.0000000000000000e+00  8.4197096181425793e-22 8.8414341024766217e-20 0.0000000000000000e+00  -2.4646692096069010e-05 -2.7227966097589022e-05 0.0000000000000000e+00  -2.0075601046410328e-05 2.2400740444535420e-05 0.0000000000000000e+00  7.7674758014357633e-20 1.7157510257077694e-23 0.0000000000000000e+00  8.5735532151957064e-20 1.2195673353586681e-21 0.0000000000000000e+00  7.0586661574006877e-20 1.2249796380222505e-22 0.0000000000000000e+00  1.0843919974283462e-05 1.3216427632702052e-08 0.0000000000000000e+00  1.0848452162304945e-05 7.9825565793625505e-09 0.0000000000000000e+00  9.8687051325846929e-06 -2.6309506498726726e-21 0.0000000000000000e+00  7.1926270060470889e-20 -2.5585475054755268e-21 0.0000000000000000e+00  1.0848290796324603e-05 3.0773462523529917e-09 0.0000000000000000e+00  7.8334706507094176e-20 4.9383331790457081e-22 0.0000000000000000e+00  7.3718657234819373e-20 -1.5099209990746008e-22 0.0000000000000000e+00  1.0858928196891664e-05 -1.3784190305620371e-09 0.0000000000000000e+00  1.0870730166007520e-05 1.1598179755202137e-09 0.0000000000000000e+00  9.8574387992392407e-06 3.3846397825814025e-21 0.0000000000000000e+00  7.4535396663935631e-20 -9.4646676283344282e-22 0.0000000000000000e+00  4.0399052520463489e-06 -3.8735798438859091e-07 0.0000000000000000e+00  7.9340300405893160e-20 2.6369143349679617e-21 0.0000000000000000e+00  9.7728034615993548e-20 -3.4731401923196917e-21 0.0000000000000000e+00  1.0859402159176027e-05 -4.8676952636379292e-09 0.0000000000000000e+00  1.0822043812270558e-05 -1.2643847426941636e-08 0.0000000000000000e+00  1.0873696902355748e-05 7.4328094891927647e-11 0.0000000000000000e+00  1.0853182594927598e-05 6.8408770012374460e-09 0.0000000000000000e+00  8.0233082811060033e-20 8.1603927928656039e-23 0.0000000000000000e+00  9.2062267921601179e-20 2.7831012736197442e-22 0.0000000000000000e+00  7.6187245458295697e-20 -1.4271707858774316e-21 0.0000000000000000e+00  6.8780358803383419e-20 1.6113842707782008e-21 0.0000000000000000e+00  1.0851150017143712e-05 -1.7521731478223349e-09 0.0000000000000000e+00  1.0852490896714886e-05 4.1350354699144568e-09 0.0000000000000000e+00  1.0849954934216887e-05 -3.5920420261039232e-09 0.0000000000000000e+00  9.8431898679148547e-06 2.9396754530298920e-06 0.0000000000000000e+00  1.0865057582281117e-05 -3.1237290460282369e-09 0.0000000000000000e+00  1.0847322820067252e-05 3.5181795441953616e-09 0.0000000000000000e+00  1.0862391588099695e-05 3.1963291425358820e-09 0.0000000000000000e+00  1.0801954695633699e-05 1.2146801784432015e-08 0.0000000000000000e+00  1.0857449833752580e-05 8.0266492636108001e-10 0.0000000000000000e+00  1.0823099849758901e-05 2.9805366595308369e-09 0.0000000000000000e+00  1.0848190305078350e-05 2.0878404852032942e-09 0.0000000000000000e+00  1.0801868260991315e-05 7.9553504848722738e-10 0.0000000000000000e+00  1.0860841909068830e-05 -1.0423400098977732e-08 0.0000000000000000e+00  1.0828443613758934e-05 6.3664948338809211e-09 0.0000000000000000e+00  1.0818436168637925e-05 -4.0030084455015087e-09 0.0000000000000000e+00  1.0843334981187257e-05 4.4532270009715565e-09 0.0000000000000000e+00  1.0858649728651482e-05 1.3553088197805843e-08 0.0000000000000000e+00  1.0785465780295394e-05 -1.2556452681152106e-08 0.0000000000000000e+00  1.0784519614093286e-05 1.1742653887891987e-08 0.0000000000000000e+00  1.0802214802563566e-05 -1.6685846133121314e-09 0.0000000000000000e+00  1.0780205268454424e-05 -7.7558080251155411e-09 0.0000000000000000e+00  1.0807459292022653e-05 -6.6010247597964062e-09 0.0000000000000000e+00  1.0860169852678908e-05 -2.9573793716223773e-09 0.0000000000000000e+00  1.0866403750194387e-05 -2.0074192887819617e-09 0.0000000000000000e+00  1.0871172018174747e-05 2.5506203026788014e-09 0.0000000000000000e+00  1.0818459823739447e-05 -1.0250100133171138e-08 0.0000000000000000e+00  9.9560331314402802e-06 -6.0596018634623435e-07 0.0000000000000000e+00  1.1119203752104923e-05 -3.2875736670152668e-07 0.0000000000000000e+00  1.0795750631135180e-05 -1.0437981967544889e-07 0.0000000000000000e+00  1.0864088313584169e-05 -3.3139506510022343e-09 0.0000000000000000e+00  1.0869873199769675e-05 -7.2955021744226091e-09 0.0000000000000000e+00  1.0870153610046738e-05 -1.7215633374350728e-09 0.0000000000000000e+00  6.6737582942880444e-21 -2.7908443776113641e-20 0.0000000000000000e+00  1.0059201736528317e-20 2.2697619322766799e-20 0.0000000000000000e+00  1.0864349214404311e-05 5.2303120084788260e-09 0.0000000000000000e+00  1.0861975579508914e-05 -1.7020752042808461e-08 0.0000000000000000e+00  1.0871826348339876e-05 2.1111882930849966e-09 0.0000000000000000e+00  1.0787722692093506e-05 4.8682807635212394e-09 0.0000000000000000e+00  1.0808782013156473e-05 5.8098478148323582e-09 0.0000000000000000e+00  1.0868136960487158e-05 -1.4612876253659062e-07 0.0000000000000000e+00  1.0730225331514846e-05 -6.7446443941706804e-07 0.0000000000000000e+00  1.0586928971361475e-05 1.1595458299100335e-08 0.0000000000000000e+00  1.0793888601982589e-05 9.4174569384477694e-09 0.0000000000000000e+00  1.0796528746357566e-05 -9.3680548376527809e-10 0.0000000000000000e+00  1.0377237364876373e-05 4.8982715458142245e-09 0.0000000000000000e+00  1.0828112561493330e-05 1.4349007283322037e-07 0.0000000000000000e+00  1.0861706806605767e-05 -1.5106264418453606e-09 0.0000000000000000e+00  1.0754895124807224e-05 1.2766020048257685e-08 0.0000000000000000e+00  9.1038029259932902e-08 -1.2769470167416775e-05 0.0000000000000000e+00  1.0863562780953476e-05 6.7147590415538376e-09 0.0000000000000000e+00  1.2780634617458584e-07 1.1089912157940806e-05 0.0000000000000000e+00  -4.3890961592533246e-19 -4.6651732482241506e-19 0.0000000000000000e+00  -8.3962019768100715e-21 6.5354220792467594e-20 0.0000000000000000e+00  4.3647082633020471e-21 7.4073537322306517e-20 0.0000000000000000e+00  3.9392494106091894e-21 -7.4259877451224620e-20 0.0000000000000000e+00  -8.8332618537781177e-21 -8.1058167599375664e-20 0.0000000000000000e+00  -4.8939485962185458e-19 3.9605836755937603e-19 0.0000000000000000e+00  1.0827431826257679e-05 -7.5182699227268021e-09 0.0000000000000000e+00  1.0443687814841781e-05 -3.7998054398664512e-09 0.0000000000000000e+00  1.0443874813959129e-05 -2.4886983885961908e-08 0.0000000000000000e+00  1.0433090778716856e-05 3.6157117112211834e-09 0.0000000000000000e+00  1.0438430684666669e-05 -1.4578177177231271e-09 0.0000000000000000e+00  1.0429583038231145e-05 1.1546649731874794e-08 0.0000000000000000e+00  1.0771393400249176e-05 1.4273321575838062e-08 0.0000000000000000e+00  1.0817958167452358e-05 1.5746644738328997e-07 0.0000000000000000e+00  1.0774873815597771e-05 -1.8605310860715752e-09 0.0000000000000000e+00  1.0850145732203673e-05 -6.0445586269267460e-09 0.0000000000000000e+00  1.0865990167950946e-05 3.0551267087176335e-09 0.0000000000000000e+00  1.0869515875300792e-05 -2.3919299745678908e-09 0.0000000000000000e+00  -1.9359975084304330e-06 1.6014869654728868e-05 0.0000000000000000e+00  -3.9595319085934331e-06 -1.6657460715595472e-05 0.0000000000000000e+00  1.0463409294190025e-05 -3.5617819830242855e-08 0.0000000000000000e+00  1.0752840079828894e-05 1.3458909838272675e-08 0.0000000000000000e+00  1.0870723933525149e-05 -2.1828363688634609e-09 0.0000000000000000e+00  1.0868388429750704e-05 -2.4808732946324549e-09 0.0000000000000000e+00  7.7169541852501848e-20 8.6497604546705535e-22 0.0000000000000000e+00  9.6152373742246671e-06 7.0511855678725519e-07 0.0000000000000000e+00  4.4544248337772647e-05 5.1975191444150662e-05 0.0000000000000000e+00  4.5136688874098277e-05 -5.5372724900491770e-05 0.0000000000000000e+00  1.0874748755362582e-05 -1.7461727192690512e-09 0.0000000000000000e+00  1.0354762779453041e-05 1.0418339395501712e-08 0.0000000000000000e+00  7.4047864083706952e-20 2.2543188793922040e-22 0.0000000000000000e+00  1.0401713578320233e-05 -1.6767499906414656e-08 0.0000000000000000e+00  1.0874851879163034e-05 1.9181700036843644e-09 0.0000000000000000e+00  1.0726455080572344e-05 8.6322789913821220e-07 0.0000000000000000e+00  1.0856177659231540e-05 4.4372923513725887e-10 0.0000000000000000e+00  7.8067953257581729e-20 -7.5069171825625381e-22 0.0000000000000000e+00  1.0869083392786436e-05 4.3640817523589171e-09 0.0000000000000000e+00  1.0864913192820356e-05 -4.8447896580850574e-09 0.0000000000000000e+00  1.0775458121379232e-05 -3.6825570906599282e-09 0.0000000000000000e+00  1.0804616359498925e-05 2.0617761121756067e-09 0.0000000000000000e+00  1.0777826163706496e-05 -8.1425632267853426e-09 0.0000000000000000e+00  7.9103601019392379e-20 6.2401561475959086e-22 0.0000000000000000e+00  1.0810952601803857e-05 -3.1506009989683372e-09 0.0000000000000000e+00  1.0870213037798339e-05 8.6550450916226918e-09 0.0000000000000000e+00  1.0456739839916200e-05 2.4496464651027679e-08 0.0000000000000000e+00  1.0868496587327043e-05 -4.6939687394094907e-10 0.0000000000000000e+00  1.0869605107516588e-05 -5.3180053428556754e-08 0.0000000000000000e+00  1.0860387426479777e-05 1.5056344677851327e-09 0.0000000000000000e+00  1.0861777059562444e-05 -2.5496352987454768e-09 0.0000000000000000e+00  1.0483266849409693e-05 -1.6430973804219142e-07 0.0000000000000000e+00  1.0803831129344079e-05 6.5802737289286406e-09 0.0000000000000000e+00  1.0799577900437906e-05 -9.6778426879246042e-09 0.0000000000000000e+00  1.0788788076516023e-05 -6.9736198975368453e-09 0.0000000000000000e+00  1.0808061065172638e-05 -1.7375840210986863e-08 0.0000000000000000e+00  1.0859670100822327e-05 3.3758218277857423e-09 0.0000000000000000e+00  8.5771195373080293e-20 -9.4465988806479430e-22 0.0000000000000000e+00  1.0048798352479833e-05 -5.8051167680753177e-06 0.0000000000000000e+00  5.9338121697283740e-06 -1.0930020456411281e-05 0.0000000000000000e+00  2.5308329766409436e-06 -8.2139848526383936e-06 0.0000000000000000e+00  7.7685803129647529e-06 -2.7755833202032161e-06 0.0000000000000000e+00  1.0871829863027651e-05 5.6818689953232193e-10 0.0000000000000000e+00  1.0862924726179074e-05 -5.7326773176768320e-09 0.0000000000000000e+00  1.0861580244053990e-05 9.2375625803755061e-10 0.0000000000000000e+00  1.0861336850681334e-05 -2.0747688274501796e-09 0.0000000000000000e+00  1.0847227559444712e-05 -2.2738713666576076e-08 0.0000000000000000e+00  1.0797648218472883e-05 2.4050254045538511e-08 0.0000000000000000e+00  8.2030622530024555e-20 2.1990439556915285e-22 0.0000000000000000e+00  1.0789940445965362e-05 1.5053466302351407e-08 0.0000000000000000e+00  1.0861707903256484e-05 -3.2167124146652514e-09 0.0000000000000000e+00  1.0861389926226317e-05 5.9648857847729370e-11 0.0000000000000000e+00  1.0787417563977312e-05 9.6768600190621485e-09 0.00000000