<?xml version="1.0"?>
<VTKFile type="UnstructuredGrid"  version="0.1"  >
<UnstructuredGrid>
<Piece  NumberOfPoints="1079" NumberOfCells="1944">
<Points>
<DataArray  type="Float64"  NumberOfComponents="3"  format="ascii">0.08500000000000001 0.02 0  0.005 0.02 0  0.005 0.03 0  0 0.03 0  0 0 0  0.005 0 0  0.005 0.01 0  0.08500000000000001 0.01 0  0 0.015 0  0 0.0075 0  0 0.0225 0  0.04500000000000001 0.02 0  0.04500000000000001 0.01 0  0.025 0.01 0  0.025 0.02 0  0.065 0.02 0  0.065 0.01 0  0.035 0.02 0  0.035 0.01 0  0.07500000000000001 0.02 0  0.07500000000000001 0.01 0  0.015 0.02 0  0.015 0.01 0  0.05500000000000001 0.01 0  0.05500000000000001 0.02 0  0.07000000000000001 0.01 0  0.07000000000000001 0.02 0  0.05 0.01 0  0.03 0.01 0  0.03 0.02 0  0.04000000000000001 0.01 0  0.01 0.01 0  0.02 0.02 0  0.06 0.015 0  0.08500000000000001 0.015 0  0.05 0.02 0  0.07250000000000001 0.015 0  0.04000000000000001 0.02 0  0.03750000000000001 0.015 0  0.0525 0.015 0  0.02 0.01 0  0.01 0.02 0  0.0275 0.015 0  0.0125 0.015 0  0.08000000000000002 0.01 0  0.08000000000000002 0.02 0  0.0325 0.014375 0  0.04291666666666667 0.015 0  0.065 0.015 0  0.005 0.005 0  0.005 0.015 0  0.02208333333333334 0.015 0  0.07791666666666668 0.015 0  0.005 0.025 0  0.06 0.01 0  0.06 0.02 0  0.01729166666666667 0.01572916666666667 0  0.04770833333333334 0.01427083333333334 0  0.06875000000000001 0.01625 0  0.008750000000000001 0.01625 0  0.05625000000000001 0.01625 0  0 0.00375 0  0 0.01875 0  0 0.01125 0  0 0.02625 0  0.08145833333333334 0.01354166666666667 0  0.0675 0.01 0  0.0075 0.0125 0  0.0625 0.0175 0  0.0575 0.0125 0  0.0625 0.0125 0  0.08207465277777778 0.01707465277777778 0  0.06767857142857144 0.01321428571428571 0  0.0175 0.01 0  0.01875 0.01291382575757576 0  0.0475 0.02 0  0.04564168086314595 0.01679860519591141 0  0.00296875 0.0125 0  0.0025 0.03 0  0.0025 0 0  0.00296875 0.0175 0  0.01521990740740741 0.0132349537037037 0  0.0497800925925926 0.0167650462962963 0  0.0325 0.02 0  0.03474264705882353 0.01674632352941176 0  0.03750000000000001 0.02 0  0.03025735294117647 0.01674632352941176 0  0.0275 0.02 0  0.0525 0.02 0  0.0125 0.01 0  0.04020833333333334 0.01322916666666667 0  0.03750000000000001 0.01 0  0.0225 0.02 0  0.02479166666666667 0.01677083333333333 0  0.07520833333333335 0.01322916666666667 0  0.07250000000000001 0.01 0  0.07520833333333335 0.01677083333333334 0  0.07250000000000001 0.02 0  0.04020833333333334 0.01677083333333333 0  0.0225 0.01 0  0.02375 0.01262152777777778 0  0.04250000000000001 0.02 0  0.04250000000000001 0.01 0  0.07750000000000001 0.01 0  0.07750000000000001 0.02 0  0.05036151960784314 0.01294424019607843 0  0.0705560064935065 0.01284699675324675 0  0.05458333333333334 0.01291666666666666 0  0.0021875 0.024375 0  0.005 0.0275 0  0.01125 0.0175 0  0.01463848039215686 0.01705575980392157 0  0.01 0.01375 0  0.03625 0.0125 0  0.0021875 0.009375 0  0.05375000000000001 0.0175 0  0.07125000000000001 0.0175 0  0.005 0.0025 0  0.0021875 0.005625 0  0.02655220103578155 0.01234889948210923 0  0.002187499999999999 0.020625 0  0.02979166666666667 0.01302083333333333 0  0.0525 0.01 0  0.07895833333333334 0.0125 0  0.01994277885235332 0.01704213007736944 0  0.07934656179076068 0.01733823814273861 0  0.04505722114764669 0.01295786992263056 0  0.06625 0.0175 0  0.006250000000000001 0.0175 0  0.05750000000000001 0.02 0  0.05875000000000001 0.0175 0  0.005 0.0225 0  0.005 0.0075 0  0.002375 0.027375 0  0.002375 0.002625000000000001 0  0.0475 0.01 0  0.0175 0.02 0  0.0325 0.01 0  0.03375 0.0121875 0  0.04261299435028249 0.01749205508474576 0  0.08500000000000001 0.0125 0  0.08250000000000002 0.01 0  0.02121963399965531 0.01224824108143494 0  0.0675 0.02 0  0.0125 0.02 0  0.02720152243589744 0.0175 0  0.03715165441176471 0.0175 0  0.08500000000000001 0.0175 0  0.0275 0.01 0  0.0025 0.0149560546875 0  0.0075 0.01 0  0.0075 0.02 0  0.06526785714285716 0.0125 0  0.01281031447005516 0.0125 0  0.0625 0.015 0  0.06 0.0125 0  0.05750000000000001 0.01 0  0.0625 0.02 0  0.0625 0.01 0  0.08250000000000002 0.02 0  0.04260103740101855 0.01252623201412851 0  0.02240052247582197 0.01750164767101344 0  0.07293583459427785 0.01238479732953041 0  0.005234374999999999 0.012265625 0  0.03528131980640358 0.01454684009679821 0  0.0325 0.01760027210036557 0  0.02532593822924343 0.01428227733767297 0  0.08009952069819683 0.01527145502895417 0  0.01987282359856536 0.01482587683689801 0  0.04828232595121382 0.01210233572595705 0  0.01671767404878618 0.01789766427404295 0  0.05125 0.01829007549029352 0  0.05247215456215357 0.01288882122882024 0  0.07338729919678716 0.01799385040160642 0  0.03838729919678716 0.01200614959839357 0  0.07717482110586968 0.01780301674207099 0  0.04771860040890012 0.01773306039388322 0  0.03125 0.01160380747126437 0  0.06875000000000001 0.01154265873015873 0  0.07625000000000001 0.01154065860215054 0  0.01625 0.01153997817696946 0  0.068125 0.018125 0  0.05437500000000001 0.015625 0  0.066875 0.015625 0  0.07039794950204951 0.01494384850614853 0  0.05687500000000001 0.018125 0  0.006875 0.015625 0  0.008749999999999999 0.01833333333333333 0  0.010625 0.015625 0  0.05625 0.01416666666666667 0  0.05812500000000001 0.015625 0  0.0449088595298192 0.01494528408816316 0  0 0.016875 0  0 0.013125 0  0.04962452342047931 0.01478673066448802 0  0.0153754765795207 0.01521326933551198 0  0.0771774565913315 0.01322498191305479 0  0.01857756431135545 0.01840228599899994 0  0.04642243568864456 0.01159771400100006 0  0.08125000000000002 0.01155637254901961 0  0.08317650804863432 0.0118234919513657 0  0.08288217288011697 0.01511353252923977 0  0.02837253504384828 0.0117177464035174 0  0.03896057962520807 0.01831163685754031 0  0.01125 0.0114244162490927 0  0.00935910490099115 0.0119067901980177 0  0.02946078431372549 0.01495404411764706 0  0.02875 0.0185829434466942 0  0.002968749999999999 0.0225 0  0.064375 0.016875 0  0.00296875 0.0075 0  0 0.001875 0  0 0.005625 0  0 0.009375 0  0 0.020625 0  0 0.024375 0  0 0.028125 0  0.06062500000000001 0.01812500000000001 0  0.008303571428571429 0.01446428571428572 0  0.01375 0.01865917058160413 0  0.05137790313978056 0.01143372888932909 0  0.04125000000000001 0.01131513063942604 0  0.04101690263896279 0.01844430285842771 0  0.02399563533148224 0.01844349395710867 0  0.08125000000000002 0.01868815426145731 0  0.05354684380692146 0.01145463537600848 0  0.01699195823639423 0.01315138909884649 0  0.07598357371794873 0.015 0  0.04098357371794872 0.015 0  0.003744047619047619 0.00375 0  0.003344630281690141 0.02580853873239437 0  0.04625 0.0187354532243972 0  0.06388392857142858 0.01138392857142858 0  0.06375 0.01375 0  0.05875 0.01375 0  0.06375 0.02 0  0.00622802734375 0.01372802734375 0  0.003630681818181818 0.001369318181818182 0  0.003630681818181818 0.02863068181818182 0  0.06125 0.01625 0  0.06125 0.01125 0  0.05625000000000001 0.01 0  0.05875 0.01125 0  0.06125 0.01375 0  0.08337864763241221 0.0183786476324122 0  0.05213634138653413 0.01674432930673294 0  0.04375000000000001 0.01 0  0.07424178685897437 0.01529258578431373 0  0.03924178685897436 0.01529258578431372 0  0.03410139294454583 0.01843406022904556 0  0.03089860705545417 0.01843406022904556 0  0.02094160484316717 0.01850229584291991 0  0.04375000000000001 0.02 0  0.04437042160883325 0.01820701498672512 0  0.04816311705429156 0.01600061344661149 0  0.07151224904251052 0.0114127410511319 0  0.04395528506193162 0.01639387970349481 0  0.0128750358694518 0.0167500179347259 0  0.02855808448399799 0.01642839899839741 0  0.02812690373330794 0.01340955081400569 0  0.08358500641945087 0.01351822349116885 0  0.05590277777777778 0.01173611111111111 0  0.06683110430364615 0.01164926404662283 0  0.02573206694914602 0.01842532451809762 0  0.01438126661842046 0.01166701193099454 0  0.02384283211216029 0.01526549696571563 0  0.03625 0.02 0  0.004609375000000001 0.0182421875 0  0.003398437500000001 0.01943359375 0  0.001728307845744682 0.01894718251329787 0  0.004377805359085963 0.01656966216675735 0  0.04649673309852075 0.0153889662370871 0  0.03615513600614297 0.01592654988586041 0  0.03316985071935832 0.01598763605018279 0  0.03110111603888768 0.01529816275177977 0  0.01370614113484869 0.0138804542047638 0  0.04930041102671841 0.01842260568883502 0  0.07875000000000001 0.02 0  0.0745395359848485 0.01165101111925709 0  0.03860755698543604 0.01373741558556884 0  0.02605038706571737 0.01573944002207753 0  0.07559826163500957 0.01841729376139847 0  0.04437500000000001 0.01149157931286774 0  0.06874116707361365 0.01454618473032123 0  0.003761917372881356 0.0239307468220339 0  0.003984374999999999 0.01125 0  0.003768503289473684 0.01392539576480263 0  0.001796875 0.0111328125 0  0.003761917372881356 0.008930746822033899 0  0.005 0.00625 0  0.003761917372881355 0.0210692531779661 0  0.06633928571428571 0.01410714285714285 0  0.006484375 0.01125 0  0.08364120589325512 0.01657288979763549 0  0.03576267476503373 0.0184116442851204 0  0.07370875846579374 0.0137848203678562 0  0.06964285714285715 0.01758928571428571 0  0.05520833333333334 0.01833333333333333 0  0.06491071428571429 0.01839285714285714 0  0.0510098951944636 0.01559941474766356 0  0.01786087179886325 0.0115702210443714 0  0.01972197383235524 0.01160576093166696 0  0.01804697593127788 0.01433503795474974 0  0.001644074528704677 0.01642892723865279 0  0.00125 0.03 0  0.001497685185185185 0.001267746913580247 0  0.07315451164202422 0.01643443118912983 0  0.001233906745910645 0.0140625 0  0.01162635071030191 0.01362229857939618 0  0.01528023503083844 0.01845923557506155 0  0.06625 0.02 0  0.07695012019230771 0.01624387078484555 0  0.03139091092855769 0.01320776147621796 0  0.03857339107781042 0.01675295051810485 0  0.001754993120977522 0.02590789105493891 0  0.002288757784711197 0.00412546923654445 0  0.07914382119690884 0.01404430049871201 0  0.001391810103286306 0.01257390899021902 0  0.0419501201923077 0.01614675005432421 0  0.001484375 0.007018229166666667 0  0.001484375 0.02201822916666666 0  0.048
[...]
<PointData  Vectors="velocity"> 
<DataArray  type="Float64"  Name="velocity"  NumberOfComponents="3" format="ascii">1.0138190020655744e-05 7.5146736550409333e-20 0.0000000000000000e+00  2.1694587002660160e-19 -2.4486959587160973e-19 0.0000000000000000e+00  8.8715120696312465e-18 -4.7508101621028293e-04 0.0000000000000000e+00  -1.0670629901934091e-17 -4.7508101621028195e-04 0.0000000000000000e+00  -9.7607312281257682e-18 4.7508101621028228e-04 0.0000000000000000e+00  9.4298589831045571e-18 4.7508101621028195e-04 0.0000000000000000e+00  2.0482594328447260e-19 1.9104898037328769e-19 0.0000000000000000e+00  1.0411498358352868e-05 -7.6274692526296796e-20 0.0000000000000000e+00  2.3032781008614975e-20 -2.2729718100606883e-22 0.0000000000000000e+00  -2.4563596029151337e-21 1.8720735320350538e-19 0.0000000000000000e+00  1.3259757504052236e-21 -2.2015011484414782e-19 0.0000000000000000e+00  1.9557059723553487e-19 -6.8690452731697412e-22 0.0000000000000000e+00  1.6462670231510039e-19 9.9109430583955057e-22 0.0000000000000000e+00  2.0678927344656449e-19 5.4643305253572875e-22 0.0000000000000000e+00  1.6630681797836231e-19 -6.2158446020494136e-22 0.0000000000000000e+00  1.7746170927801167e-19 5.8150774848578326e-22 0.0000000000000000e+00  1.8535442619744387e-19 2.6535465799271026e-22 0.0000000000000000e+00  1.5405496769002523e-19 -3.3627753419338765e-22 0.0000000000000000e+00  2.2302888031466570e-19 -2.2334440113842283e-22 0.0000000000000000e+00  1.8582793234180053e-19 1.1364174098660474e-21 0.0000000000000000e+00  1.6544091558559488e-19 6.9945127945034043e-22 0.0000000000000000e+00  1.5404127522525533e-19 -3.7698354253168660e-22 0.0000000000000000e+00  1.5816925139697333e-19 -3.6482367263276497e-22 0.0000000000000000e+00  1.8929612085586942e-19 -2.0891573500367292e-21 0.0000000000000000e+00  1.7634210743121209e-19 7.9834259150721222e-22 0.0000000000000000e+00  1.6830262957740276e-19 3.0377899196352329e-22 0.0000000000000000e+00  2.0469990794765272e-19 -7.3349227617961377e-22 0.0000000000000000e+00  1.9440701023107248e-19 6.0176802947414495e-22 0.0000000000000000e+00  1.9446616423332430e-19 5.4259532431173073e-23 0.0000000000000000e+00  1.5574419591219773e-19 -3.9594059129776374e-22 0.0000000000000000e+00  1.7801186709381907e-19 5.9878837273332123e-22 0.0000000000000000e+00  1.9555333609297795e-19 1.0588438680776962e-21 0.0000000000000000e+00  1.5898102947802131e-19 -3.4289743720845477e-22 0.0000000000000000e+00  2.5833751086340934e-05 -3.7699551972396071e-09 0.0000000000000000e+00  2.4810134745979251e-05 5.0937012624488175e-23 0.0000000000000000e+00  1.6165286918979688e-19 1.2905403326764764e-22 0.0000000000000000e+00  2.5833270218093051e-05 8.7093922546411307e-09 0.0000000000000000e+00  1.8618602539196261e-19 -1.7462276971661059e-21 0.0000000000000000e+00  2.5811770749168374e-05 -1.2563032247469475e-08 0.0000000000000000e+00  2.5806837651983004e-05 -1.4094937243882971e-09 0.0000000000000000e+00  1.7543133768446533e-19 8.1709500756118776e-23 0.0000000000000000e+00  1.8935602352860110e-19 -3.6635061816520091e-21 0.0000000000000000e+00  2.5810166863903732e-05 -6.3434914332901917e-10 0.0000000000000000e+00  2.5756337788828909e-05 -9.4199087850407692e-08 0.0000000000000000e+00  1.6424600228226195e-19 -5.8735116317496166e-22 0.0000000000000000e+00  1.8345312387359273e-19 3.2230112881477784e-21 0.0000000000000000e+00  2.5804197691970516e-05 7.6499902668728823e-10 0.0000000000000000e+00  2.5830358078691693e-05 -2.5166078901681071e-09 0.0000000000000000e+00  2.5823379130889392e-05 -2.1737717336552033e-09 0.0000000000000000e+00  -1.2639140524772729e-20 2.3009207002578384e-19 0.0000000000000000e+00  1.9514858640456035e-05 -9.6390612221554084e-07 0.0000000000000000e+00  2.5800143909398213e-05 6.5525189030480511e-09 0.0000000000000000e+00  2.5793365868146857e-05 1.3280920202281071e-09 0.0000000000000000e+00  -1.8633157237505579e-20 -2.6830823496891649e-19 0.0000000000000000e+00  1.6414365280349295e-19 2.4864895732566518e-22 0.0000000000000000e+00  1.8561108851652872e-19 2.3023494510068763e-21 0.0000000000000000e+00  2.5811979832960510e-05 -8.0159177502289221e-09 0.0000000000000000e+00  2.5820533351925542e-05 6.8289942556805364e-09 0.0000000000000000e+00  2.5823582585583660e-05 -6.5832571188764330e-09 0.0000000000000000e+00  2.5419097196978827e-05 -8.0276084384536261e-07 0.0000000000000000e+00  2.5805231188580091e-05 -1.9422660890787088e-08 0.0000000000000000e+00  -1.1300669770099574e-19 3.9807029492718061e-20 0.0000000000000000e+00  1.0287515759350235e-20 -1.0164466196721012e-19 0.0000000000000000e+00  1.4758946142740243e-20 1.1346389815101766e-19 0.0000000000000000e+00  -1.2756389050421189e-19 2.4597521487359242e-20 0.0000000000000000e+00  2.5556111828217551e-05 -2.4706921689056177e-07 0.0000000000000000e+00  1.5925704853314175e-19 -4.7619345415535500e-22 0.0000000000000000e+00  2.5473516597589032e-05 1.4877814328602483e-06 0.0000000000000000e+00  2.5775501192497494e-05 7.9317869818761413e-10 0.0000000000000000e+00  2.5787043658701612e-05 2.1522515015456750e-09 0.0000000000000000e+00  2.5810126475995735e-05 -1.1115785923159798e-08 0.0000000000000000e+00  2.5528217052309089e-05 4.7235683578616980e-07 0.0000000000000000e+00  2.5807265139687643e-05 -5.2262580150725082e-09 0.0000000000000000e+00  1.7264603304759485e-19 -3.7509114373457653e-23 0.0000000000000000e+00  2.5786980282305396e-05 1.1126968206011729e-10 0.0000000000000000e+00  2.1211572868175925e-19 3.1294191634673284e-21 0.0000000000000000e+00  2.5830322587420319e-05 -1.9663927170873290e-08 0.0000000000000000e+00  1.2365817646306026e-05 1.0154887044590622e-05 0.0000000000000000e+00  -5.2760117103157063e-19 -4.7508101621028439e-04 0.0000000000000000e+00  -8.4343355937522408e-19 4.7508101621028488e-04 0.0000000000000000e+00  1.2768828392880463e-05 -1.2492106349213615e-05 0.0000000000000000e+00  2.5777852380176293e-05 -3.4237872737331266e-08 0.0000000000000000e+00  2.5798935219992892e-05 2.3177843695940934e-08 0.0000000000000000e+00  1.6761992087032066e-19 1.5440569040386559e-21 0.0000000000000000e+00  2.5796736033178587e-05 -7.9676028845343246e-09 0.0000000000000000e+00  1.8799434916693034e-19 1.1452341655936808e-21 0.0000000000000000e+00  2.5801717579197088e-05 -8.1881875601305501e-09 0.0000000000000000e+00  2.0673352954341554e-19 4.0447991178136076e-22 0.0000000000000000e+00  1.8166385468871273e-19 -3.7901920934264702e-23 0.0000000000000000e+00  1.9173422284890868e-19 1.0533116590327056e-21 0.0000000000000000e+00  2.5810044100662157e-05 7.9888521898173360e-09 0.0000000000000000e+00  1.6941299541259954e-19 6.1082104288354515e-22 0.0000000000000000e+00  1.8616090456184848e-19 5.0820792390859556e-22 0.0000000000000000e+00  2.5793730379389735e-05 2.0490569190291202e-09 0.0000000000000000e+00  2.5818897097407667e-05 4.1223006300651362e-09 0.0000000000000000e+00  1.8483230481642200e-19 1.6176227707502495e-22 0.0000000000000000e+00  2.5813974348105584e-05 1.7708614205019788e-08 0.0000000000000000e+00  1.9374817669640235e-19 2.0921114971794684e-21 0.0000000000000000e+00  2.5825897003433453e-05 -3.2798723092626966e-08 0.0000000000000000e+00  1.6470427149158355e-19 5.6354107490277221e-23 0.0000000000000000e+00  2.5771613492828951e-05 1.7451959657383068e-08 0.0000000000000000e+00  1.9156007287188976e-19 -2.9344373908071350e-23 0.0000000000000000e+00  1.6273825063942347e-19 1.6986342033836355e-21 0.0000000000000000e+00  1.9460353359285561e-19 3.1339580633657870e-21 0.0000000000000000e+00  2.0042132251239443e-19 -1.2113725415788198e-21 0.0000000000000000e+00  2.5815556362485490e-05 1.9541344868056381e-08 0.0000000000000000e+00  2.5821615986176880e-05 3.0523210489159584e-08 0.0000000000000000e+00  2.5814072681363973e-05 3.2040986548487877e-09 0.0000000000000000e+00  -5.2138078175049628e-06 -2.8295437455871955e-05 0.0000000000000000e+00  3.7917895865009525e-20 -3.8465380509968904e-19 0.0000000000000000e+00  2.5899526942507485e-05 -2.1275245286478151e-07 0.0000000000000000e+00  2.5849120798780578e-05 -6.9880969640157467e-08 0.0000000000000000e+00  2.5513446885220165e-05 7.5460393888074643e-08 0.0000000000000000e+00  2.5752644491663647e-05 -2.7685649035450557e-08 0.0000000000000000e+00  4.3518650958334625e-06 2.3176223286280111e-05 0.0000000000000000e+00  2.5774975095158403e-05 -3.8323768017801761e-11 0.0000000000000000e+00  2.5829793924931669e-05 6.2276492959565100e-11 0.0000000000000000e+00  7.7131560909594383e-20 2.1425003572278702e-19 0.0000000000000000e+00  -4.6257917154293148e-06 2.4667299053968935e-05 0.0000000000000000e+00  2.5771426404219318e-05 -1.7699106166123188e-08 0.0000000000000000e+00  4.3167868149315157e-06 -2.6466665046940780e-05 0.0000000000000000e+00  2.5815865320469670e-05 -4.2389543307466221e-09 0.0000000000000000e+00  1.6440001209610093e-19 -1.4127558152229613e-21 0.0000000000000000e+00  2.5765925918547121e-05 -7.8866917793337733e-08 0.0000000000000000e+00  2.5790120486311976e-05 5.5366826997768138e-10 0.0000000000000000e+00  2.5779083001898023e-05 1.1910299237743315e-07 0.0000000000000000e+00  2.5822210367477142e-05 -5.7292238106746919e-09 0.0000000000000000e+00  2.5811048620939984e-05 -3.0507099597867543e-08 0.0000000000000000e+00  2.5739146192154874e-05 -4.7147037995662532e-06 0.0000000000000000e+00  1.8864449858216130e-19 -2.5356039604617346e-21 0.0000000000000000e+00  2.5764040228993371e-05 -9.0804893548963126e-09 0.0000000000000000e+00  2.6135800888059287e-21 -2.5017643145717969e-19 0.0000000000000000e+00  2.3550445488856091e-21 2.1296162229973978e-19 0.0000000000000000e+00  -5.7064364284472041e-05 -6.4215113075516026e-05 0.0000000000000000e+00  -4.6647334176682639e-05 5.3037533804081958e-05 0.0000000000000000e+00  1.7291880653196281e-19 6.3211879894496773e-23 0.0000000000000000e+00  1.9987370726297272e-19 2.9754969842400966e-21 0.0000000000000000e+00  1.6653157493426613e-19 2.5814469766053133e-22 0.0000000000000000e+00  2.5765312968967116e-05 3.1388038403744152e-08 0.0000000000000000e+00  2.5776064709405150e-05 1.9010529577265294e-08 0.0000000000000000e+00  2.3448069129372213e-05 -6.2694874037708729e-21 0.0000000000000000e+00  1.7241900198893020e-19 -5.2446238585760018e-21 0.0000000000000000e+00  2.5775886320554438e-05 7.4401297241710636e-09 0.0000000000000000e+00  1.8966712937158861e-19 1.2372773073628574e-21 0.0000000000000000e+00  1.7228630005440930e-19 -3.6238103977790422e-22 0.0000000000000000e+00  2.5800960717996293e-05 -3.2445476446271621e-09 0.0000000000000000e+00  2.5829056543952686e-05 2.7327963370000758e-09 0.0000000000000000e+00  2.3421320169443890e-05 7.8948872526725558e-21 0.0000000000000000e+00  1.7924804225060064e-19 -2.2953482987509958e-21 0.0000000000000000e+00  9.5992752183519255e-06 -8.6565474850189528e-07 0.0000000000000000e+00  1.9374813690278883e-19 6.1642153284965335e-21 0.0000000000000000e+00  2.2966004067724448e-19 -8.7024217495560504e-21 0.0000000000000000e+00  2.5802116678169559e-05 -1.1582977362302841e-08 0.0000000000000000e+00  2.5716117402272890e-05 -2.7588279449070132e-08 0.0000000000000000e+00  2.5836084602571945e-05 1.7517947791204987e-10 0.0000000000000000e+00  2.5787364624961225e-05 1.6217985483339332e-08 0.0000000000000000e+00  1.9336606417164166e-19 2.0459523538878333e-22 0.0000000000000000e+00  2.0979927191695569e-19 6.1715360288890862e-22 0.0000000000000000e+00  1.7731759472986081e-19 -3.4048855447107118e-21 0.0000000000000000e+00  1.6798178256276441e-19 3.4045635352418966e-21 0.0000000000000000e+00  2.5782441201113697e-05 -4.1915733157861117e-09 0.0000000000000000e+00  2.5785583321492178e-05 9.9494219950967173e-09 0.0000000000000000e+00  2.5779632397070869e-05 -8.5708941968017546e-09 0.0000000000000000e+00  2.3414410755476348e-05 7.0225048856054337e-06 0.0000000000000000e+00  2.5815562707055176e-05 -7.4230848167293394e-09 0.0000000000000000e+00  2.5773458778243652e-05 8.3939494946821032e-09 0.0000000000000000e+00  2.5809242220980171e-05 7.6473930144504335e-09 0.0000000000000000e+00  2.5665529347110073e-05 2.8870633265022550e-08 0.0000000000000000e+00  2.5797494778342294e-05 2.2669305820548546e-09 0.0000000000000000e+00  2.5715896779346583e-05 7.0636444016922912e-09 0.0000000000000000e+00  2.5774651619512425e-05 5.6126748378812905e-09 0.0000000000000000e+00  2.5665452672288487e-05 1.9076911569914484e-09 0.0000000000000000e+00  2.5805550353771692e-05 -2.4762881411953448e-08 0.0000000000000000e+00  2.5728598383525220e-05 1.5188851393104762e-08 0.0000000000000000e+00  2.5704814119256133e-05 -9.5258837690396270e-09 0.0000000000000000e+00  2.5763982220830831e-05 1.0635760556771177e-08 0.0000000000000000e+00  2.5800354368768376e-05 3.2262584697689454e-08 0.0000000000000000e+00  2.5626477942579039e-05 -2.9833667586083309e-08 0.0000000000000000e+00  2.5624163572432272e-05 2.7878287186115683e-08 0.0000000000000000e+00  2.5666222982149819e-05 -3.9293703375554678e-09 0.0000000000000000e+00  2.5615043725508374e-05 -1.7961532637396269e-08 0.0000000000000000e+00  2.5678738419457349e-05 -1.5648981718560420e-08 0.0000000000000000e+00  2.5803949978564705e-05 -7.0311590803510993e-09 0.0000000000000000e+00  2.5818761330083614e-05 -4.7721889652771238e-09 0.0000000000000000e+00  2.5830090363987047e-05 6.0635698454617446e-09 0.0000000000000000e+00  2.5704782374989213e-05 -2.4367428740170192e-08 0.0000000000000000e+00  2.3651864206480826e-05 -1.4146342187761859e-06 0.0000000000000000e+00  2.6406053282518779e-05 -7.7382540388529273e-07 0.0000000000000000e+00  2.5649451602554324e-05 -2.4025917665700675e-07 0.0000000000000000e+00  2.5813261614133472e-05 -7.8762016130443920e-09 0.0000000000000000e+00  2.5827008559138751e-05 -1.7333977477964053e-08 0.0000000000000000e+00  2.5827670173655728e-05 -4.0876191274360168e-09 0.0000000000000000e+00  1.5698499624063923e-20 -6.2187293196774958e-20 0.0000000000000000e+00  2.3690495527402203e-20 5.8772608053648150e-20 0.0000000000000000e+00  2.5813873102039558e-05 1.2425556674089261e-08 0.0000000000000000e+00  2.5808126829344554e-05 -3.8853738135557910e-08 0.0000000000000000e+00  2.5831626274971438e-05 4.9970158154142833e-09 0.0000000000000000e+00  2.5631283058400713e-05 1.1786935437254609e-08 0.0000000000000000e+00  2.5681874669525553e-05 1.3755340257758534e-08 0.0000000000000000e+00  2.5822864329973266e-05 -3.4739060391127405e-07 0.0000000000000000e+00  2.5494803904691595e-05 -1.6027911475486452e-06 0.0000000000000000e+00  2.5154335121865696e-05 2.7572415144479353e-08 0.0000000000000000e+00  2.5646544627572358e-05 2.2370751080502358e-08 0.0000000000000000e+00  2.5652753534680397e-05 -2.2617578118564152e-09 0.0000000000000000e+00  2.4662169497983485e-05 1.3641048859675544e-08 0.0000000000000000e+00  2.5738212255400088e-05 3.4688988159019847e-07 0.0000000000000000e+00  2.5807598933768482e-05 -3.5732755848867755e-09 0.0000000000000000e+00  2.5553831065081238e-05 3.0359184053680964e-08 0.0000000000000000e+00  2.4923980684313894e-07 -3.0239650513492394e-05 0.0000000000000000e+00  2.5811994743982641e-05 1.5963588873794938e-08 0.0000000000000000e+00  3.3156357892478480e-07 2.6430125693864645e-05 0.0000000000000000e+00  -1.0560249740272299e-18 -1.1088559862469682e-18 0.0000000000000000e+00  -2.0082807431018687e-20 1.5793936691513000e-19 0.0000000000000000e+00  1.0620673621959634e-20 1.7462746962939894e-19 0.0000000000000000e+00  9.2394379451238299e-21 -1.7569123327475686e-19 0.0000000000000000e+00  -2.0680224810609945e-20 -1.9370823641696954e-19 0.0000000000000000e+00  -1.1330491924173067e-18 9.5319773031079621e-19 0.0000000000000000e+00  2.5726166638504645e-05 -1.7857851655041600e-08 0.0000000000000000e+00  2.4817481409273264e-05 7.0415106735557801e-09 0.0000000000000000e+00  2.4812218799014746e-05 -5.7986732521146817e-08 0.0000000000000000e+00  2.4789243891180183e-05 8.3062836857283497e-09 0.0000000000000000e+00  2.4801910614128039e-05 -3.5715061474326173e-09 0.0000000000000000e+00  2.4780742405646321e-05 2.7712158295967573e-08 0.0000000000000000e+00  2.5592875207998923e-05 3.3951101374833976e-08 0.0000000000000000e+00  2.5703742360999222e-05 3.7422670663506269e-07 0.0000000000000000e+00  2.5601256937371753e-05 -4.3261109927668208e-09 0.0000000000000000e+00  2.5780664148624264e-05 -1.3584583957008628e-08 0.0000000000000000e+00  2.5817768027945109e-05 7.2559409270227035e-09 0.0000000000000000e+00  2.5826157699448596e-05 -5.6827150642253001e-09 0.0000000000000000e+00  -4.4431463496870845e-06 3.7850875033523144e-05 0.0000000000000000e+00  -9.1037442016890896e-06 -3.9247411947099722e-05 0.0000000000000000e+00  2.4860860354866278e-05 -8.4639066988003498e-08 0.0000000000000000e+00  2.5548878842899550e-05 3.2038048588734724e-08 0.0000000000000000e+00  2.5829020772917325e-05 -5.1867506894486681e-09 0.0000000000000000e+00  2.5823482723699880e-05 -5.8901743572431957e-09 0.0000000000000000e+00  1.7753911784341187e-19 2.0851439382007629e-21 0.0000000000000000e+00  2.2856444617663354e-05 1.7043407872187354e-06 0.0000000000000000e+00  1.0513859443646840e-04 1.2199789954455108e-04 0.0000000000000000e+00  1.0605439833236565e-04 -1.2967245275244697e-04 0.0000000000000000e+00  2.5838581794307994e-05 -4.1420925872640297e-09 0.0000000000000000e+00  2.4602688772660874e-05 2.4679827532095464e-08 0.0000000000000000e+00  1.7447553448674673e-19 5.1355276302072921e-22 0.0000000000000000e+00  2.4714682635447705e-05 -4.0013541256794230e-08 0.0000000000000000e+00  2.5838836081704431e-05 4.5555899127566292e-09 0.0000000000000000e+00  2.5486344625841153e-05 2.0509271267170698e-06 0.0000000000000000e+00  2.5794460295769654e-05 1.0498732750591013e-09 0.0000000000000000e+00  1.9245498658613995e-19 -1.8396339159145938e-21 0.0000000000000000e+00  2.5825122035572380e-05 1.0368323483089493e-08 0.0000000000000000e+00  2.5815220177956429e-05 -1.1510041588614158e-08 0.0000000000000000e+00  2.5602661936305566e-05 -8.7860698719207197e-09 0.0000000000000000e+00  2.5671945849917488e-05 4.9063682305770979e-09 0.0000000000000000e+00  2.5608060459480761e-05 -1.9213120388921018e-08 0.0000000000000000e+00  1.8607845150367438e-19 1.5097797897598594e-21 0.0000000000000000e+00  2.5686962985287829e-05 -7.5172765092496950e-09 0.0000000000000000e+00  2.5827805455982600e-05 2.0568653440754821e-08 0.0000000000000000e+00  2.4845428646590042e-05 5.8009035728803362e-08 0.0000000000000000e+00  2.5823734466646271e-05 -1.1122678035619254e-09 0.0000000000000000e+00  2.5824335327185665e-05 -1.2321243965564324e-07 0.0000000000000000e+00  2.5804456584807152e-05 3.5965660460229629e-09 0.0000000000000000e+00  2.5807773483558567e-05 -6.0445869259850521e-09 0.0000000000000000e+00  2.4908036600243055e-05 -3.9077284355278099e-07 0.0000000000000000e+00  2.5670124052599668e-05 1.5591490212400765e-08 0.0000000000000000e+00  2.5659946977730647e-05 -2.3047269700384837e-08 0.0000000000000000e+00  2.5634336059844109e-05 -1.6498832311954933e-08 0.0000000000000000e+00  2.5681980635448665e-05 -4.0257534795403582e-08 0.0000000000000000e+00  2.5802753591716933e-05 8.1140254919626274e-09 0.0000000000000000e+00  1.8200229262092648e-19 -2.3015870023654786e-21 0.0000000000000000e+00  2.3846342541952744e-05 -1.3744009195664020e-05 0.0000000000000000e+00  1.4077404771803492e-05 -2.5888524170577145e-05 0.0000000000000000e+00  6.0076026480472739e-06 -1.9446615187426201e-05 0.0000000000000000e+00  1.8447019116639642e-05 -6.5496401835373083e-06 0.0000000000000000e+00  2.5831652072557846e-05 1.3549327578499521e-09 0.0000000000000000e+00  2.5810495696806497e-05 -1.3621979363381457e-08 0.0000000000000000e+00  2.5807298007829434e-05 2.1982719854234318e-09 0.0000000000000000e+00  2.5806720836524195e-05 -4.9186742441358210e-09 0.0000000000000000e+00  2.5774237694665306e-05 -5.1437131383146901e-08 0.0000000000000000e+00  2.5655303476285677e-05 5.7114608341023147e-08 0.0000000000000000e+00  2.0009038123009911e-19 4.5488794969161901e-22 0.0000000000000000e+00  2.5637144802663802e-05 3.5726264158242460e-08 0.0000000000000000e+00  2.5807604541066189e-05 -7.6403443521980098e-09 0.0000000000000000e+00  2.5806835031759498e-05 1.8393294107736945e-10 0.0000000000000000e+00  2.5631094292639048e-05 2.2968719715600455e-08 0.000000000