<?xml version="1.0"?>
<VTKFile type="UnstructuredGrid"  version="0.1"  >
<UnstructuredGrid>
<Piece  NumberOfPoints="1079" NumberOfCells="1944">
<Points>
<DataArray  type="Float64"  NumberOfComponents="3"  format="ascii">0.08500000000000001 0.02 0  0.005 0.02 0  0.005 0.03 0  0 0.03 0  0 0 0  0.005 0 0  0.005 0.01 0  0.08500000000000001 0.01 0  0 0.015 0  0 0.0075 0  0 0.0225 0  0.04500000000000001 0.02 0  0.04500000000000001 0.01 0  0.025 0.01 0  0.025 0.02 0  0.065 0.02 0  0.065 0.01 0  0.035 0.02 0  0.035 0.01 0  0.07500000000000001 0.02 0  0.07500000000000001 0.01 0  0.015 0.02 0  0.015 0.01 0  0.05500000000000001 0.01 0  0.05500000000000001 0.02 0  0.07000000000000001 0.01 0  0.07000000000000001 0.02 0  0.05 0.01 0  0.03 0.01 0  0.03 0.02 0  0.04000000000000001 0.01 0  0.01 0.01 0  0.02 0.02 0  0.06 0.015 0  0.08500000000000001 0.015 0  0.05 0.02 0  0.07250000000000001 0.015 0  0.04000000000000001 0.02 0  0.03750000000000001 0.015 0  0.0525 0.015 0  0.02 0.01 0  0.01 0.02 0  0.0275 0.015 0  0.0125 0.015 0  0.08000000000000002 0.01 0  0.08000000000000002 0.02 0  0.0325 0.014375 0  0.04291666666666667 0.015 0  0.065 0.015 0  0.005 0.005 0  0.005 0.015 0  0.02208333333333334 0.015 0  0.07791666666666668 0.015 0  0.005 0.025 0  0.06 0.01 0  0.06 0.02 0  0.01729166666666667 0.01572916666666667 0  0.04770833333333334 0.01427083333333334 0  0.06875000000000001 0.01625 0  0.008750000000000001 0.01625 0  0.05625000000000001 0.01625 0  0 0.00375 0  0 0.01875 0  0 0.01125 0  0 0.02625 0  0.08145833333333334 0.01354166666666667 0  0.0675 0.01 0  0.0075 0.0125 0  0.0625 0.0175 0  0.0575 0.0125 0  0.0625 0.0125 0  0.08207465277777778 0.01707465277777778 0  0.06767857142857144 0.01321428571428571 0  0.0175 0.01 0  0.01875 0.01291382575757576 0  0.0475 0.02 0  0.04564168086314595 0.01679860519591141 0  0.00296875 0.0125 0  0.0025 0.03 0  0.0025 0 0  0.00296875 0.0175 0  0.01521990740740741 0.0132349537037037 0  0.0497800925925926 0.0167650462962963 0  0.0325 0.02 0  0.03474264705882353 0.01674632352941176 0  0.03750000000000001 0.02 0  0.03025735294117647 0.01674632352941176 0  0.0275 0.02 0  0.0525 0.02 0  0.0125 0.01 0  0.04020833333333334 0.01322916666666667 0  0.03750000000000001 0.01 0  0.0225 0.02 0  0.02479166666666667 0.01677083333333333 0  0.07520833333333335 0.01322916666666667 0  0.07250000000000001 0.01 0  0.07520833333333335 0.01677083333333334 0  0.07250000000000001 0.02 0  0.04020833333333334 0.01677083333333333 0  0.0225 0.01 0  0.02375 0.01262152777777778 0  0.04250000000000001 0.02 0  0.04250000000000001 0.01 0  0.07750000000000001 0.01 0  0.07750000000000001 0.02 0  0.05036151960784314 0.01294424019607843 0  0.0705560064935065 0.01284699675324675 0  0.05458333333333334 0.01291666666666666 0  0.0021875 0.024375 0  0.005 0.0275 0  0.01125 0.0175 0  0.01463848039215686 0.01705575980392157 0  0.01 0.01375 0  0.03625 0.0125 0  0.0021875 0.009375 0  0.05375000000000001 0.0175 0  0.07125000000000001 0.0175 0  0.005 0.0025 0  0.0021875 0.005625 0  0.02655220103578155 0.01234889948210923 0  0.002187499999999999 0.020625 0  0.02979166666666667 0.01302083333333333 0  0.0525 0.01 0  0.07895833333333334 0.0125 0  0.01994277885235332 0.01704213007736944 0  0.07934656179076068 0.01733823814273861 0  0.04505722114764669 0.01295786992263056 0  0.06625 0.0175 0  0.006250000000000001 0.0175 0  0.05750000000000001 0.02 0  0.05875000000000001 0.0175 0  0.005 0.0225 0  0.005 0.0075 0  0.002375 0.027375 0  0.002375 0.002625000000000001 0  0.0475 0.01 0  0.0175 0.02 0  0.0325 0.01 0  0.03375 0.0121875 0  0.04261299435028249 0.01749205508474576 0  0.08500000000000001 0.0125 0  0.08250000000000002 0.01 0  0.02121963399965531 0.01224824108143494 0  0.0675 0.02 0  0.0125 0.02 0  0.02720152243589744 0.0175 0  0.03715165441176471 0.0175 0  0.08500000000000001 0.0175 0  0.0275 0.01 0  0.0025 0.0149560546875 0  0.0075 0.01 0  0.0075 0.02 0  0.06526785714285716 0.0125 0  0.01281031447005516 0.0125 0  0.0625 0.015 0  0.06 0.0125 0  0.05750000000000001 0.01 0  0.0625 0.02 0  0.0625 0.01 0  0.08250000000000002 0.02 0  0.04260103740101855 0.01252623201412851 0  0.02240052247582197 0.01750164767101344 0  0.07293583459427785 0.01238479732953041 0  0.005234374999999999 0.012265625 0  0.03528131980640358 0.01454684009679821 0  0.0325 0.01760027210036557 0  0.02532593822924343 0.01428227733767297 0  0.08009952069819683 0.01527145502895417 0  0.01987282359856536 0.01482587683689801 0  0.04828232595121382 0.01210233572595705 0  0.01671767404878618 0.01789766427404295 0  0.05125 0.01829007549029352 0  0.05247215456215357 0.01288882122882024 0  0.07338729919678716 0.01799385040160642 0  0.03838729919678716 0.01200614959839357 0  0.07717482110586968 0.01780301674207099 0  0.04771860040890012 0.01773306039388322 0  0.03125 0.01160380747126437 0  0.06875000000000001 0.01154265873015873 0  0.07625000000000001 0.01154065860215054 0  0.01625 0.01153997817696946 0  0.068125 0.018125 0  0.05437500000000001 0.015625 0  0.066875 0.015625 0  0.07039794950204951 0.01494384850614853 0  0.05687500000000001 0.018125 0  0.006875 0.015625 0  0.008749999999999999 0.01833333333333333 0  0.010625 0.015625 0  0.05625 0.01416666666666667 0  0.05812500000000001 0.015625 0  0.0449088595298192 0.01494528408816316 0  0 0.016875 0  0 0.013125 0  0.04962452342047931 0.01478673066448802 0  0.0153754765795207 0.01521326933551198 0  0.0771774565913315 0.01322498191305479 0  0.01857756431135545 0.01840228599899994 0  0.04642243568864456 0.01159771400100006 0  0.08125000000000002 0.01155637254901961 0  0.08317650804863432 0.0118234919513657 0  0.08288217288011697 0.01511353252923977 0  0.02837253504384828 0.0117177464035174 0  0.03896057962520807 0.01831163685754031 0  0.01125 0.0114244162490927 0  0.00935910490099115 0.0119067901980177 0  0.02946078431372549 0.01495404411764706 0  0.02875 0.0185829434466942 0  0.002968749999999999 0.0225 0  0.064375 0.016875 0  0.00296875 0.0075 0  0 0.001875 0  0 0.005625 0  0 0.009375 0  0 0.020625 0  0 0.024375 0  0 0.028125 0  0.06062500000000001 0.01812500000000001 0  0.008303571428571429 0.01446428571428572 0  0.01375 0.01865917058160413 0  0.05137790313978056 0.01143372888932909 0  0.04125000000000001 0.01131513063942604 0  0.04101690263896279 0.01844430285842771 0  0.02399563533148224 0.01844349395710867 0  0.08125000000000002 0.01868815426145731 0  0.05354684380692146 0.01145463537600848 0  0.01699195823639423 0.01315138909884649 0  0.07598357371794873 0.015 0  0.04098357371794872 0.015 0  0.003744047619047619 0.00375 0  0.003344630281690141 0.02580853873239437 0  0.04625 0.0187354532243972 0  0.06388392857142858 0.01138392857142858 0  0.06375 0.01375 0  0.05875 0.01375 0  0.06375 0.02 0  0.00622802734375 0.01372802734375 0  0.003630681818181818 0.001369318181818182 0  0.003630681818181818 0.02863068181818182 0  0.06125 0.01625 0  0.06125 0.01125 0  0.05625000000000001 0.01 0  0.05875 0.01125 0  0.06125 0.01375 0  0.08337864763241221 0.0183786476324122 0  0.05213634138653413 0.01674432930673294 0  0.04375000000000001 0.01 0  0.07424178685897437 0.01529258578431373 0  0.03924178685897436 0.01529258578431372 0  0.03410139294454583 0.01843406022904556 0  0.03089860705545417 0.01843406022904556 0  0.02094160484316717 0.01850229584291991 0  0.04375000000000001 0.02 0  0.04437042160883325 0.01820701498672512 0  0.04816311705429156 0.01600061344661149 0  0.07151224904251052 0.0114127410511319 0  0.04395528506193162 0.01639387970349481 0  0.0128750358694518 0.0167500179347259 0  0.02855808448399799 0.01642839899839741 0  0.02812690373330794 0.01340955081400569 0  0.08358500641945087 0.01351822349116885 0  0.05590277777777778 0.01173611111111111 0  0.06683110430364615 0.01164926404662283 0  0.02573206694914602 0.01842532451809762 0  0.01438126661842046 0.01166701193099454 0  0.02384283211216029 0.01526549696571563 0  0.03625 0.02 0  0.004609375000000001 0.0182421875 0  0.003398437500000001 0.01943359375 0  0.001728307845744682 0.01894718251329787 0  0.004377805359085963 0.01656966216675735 0  0.04649673309852075 0.0153889662370871 0  0.03615513600614297 0.01592654988586041 0  0.03316985071935832 0.01598763605018279 0  0.03110111603888768 0.01529816275177977 0  0.01370614113484869 0.0138804542047638 0  0.04930041102671841 0.01842260568883502 0  0.07875000000000001 0.02 0  0.0745395359848485 0.01165101111925709 0  0.03860755698543604 0.01373741558556884 0  0.02605038706571737 0.01573944002207753 0  0.07559826163500957 0.01841729376139847 0  0.04437500000000001 0.01149157931286774 0  0.06874116707361365 0.01454618473032123 0  0.003761917372881356 0.0239307468220339 0  0.003984374999999999 0.01125 0  0.003768503289473684 0.01392539576480263 0  0.001796875 0.0111328125 0  0.003761917372881356 0.008930746822033899 0  0.005 0.00625 0  0.003761917372881355 0.0210692531779661 0  0.06633928571428571 0.01410714285714285 0  0.006484375 0.01125 0  0.08364120589325512 0.01657288979763549 0  0.03576267476503373 0.0184116442851204 0  0.07370875846579374 0.0137848203678562 0  0.06964285714285715 0.01758928571428571 0  0.05520833333333334 0.01833333333333333 0  0.06491071428571429 0.01839285714285714 0  0.0510098951944636 0.01559941474766356 0  0.01786087179886325 0.0115702210443714 0  0.01972197383235524 0.01160576093166696 0  0.01804697593127788 0.01433503795474974 0  0.001644074528704677 0.01642892723865279 0  0.00125 0.03 0  0.001497685185185185 0.001267746913580247 0  0.07315451164202422 0.01643443118912983 0  0.001233906745910645 0.0140625 0  0.01162635071030191 0.01362229857939618 0  0.01528023503083844 0.01845923557506155 0  0.06625 0.02 0  0.07695012019230771 0.01624387078484555 0  0.03139091092855769 0.01320776147621796 0  0.03857339107781042 0.01675295051810485 0  0.001754993120977522 0.02590789105493891 0  0.002288757784711197 0.00412546923654445 0  0.07914382119690884 0.01404430049871201 0  0.001391810103286306 0.01257390899021902 0  0.0419501201923077 0.01614675005432421 0  0.001484375 0.007018229166666667 0  0.001484375 0.02201822916666666 0  0.048
[...]
<PointData  Vectors="velocity"> 
<DataArray  type="Float64"  Name="velocity"  NumberOfComponents="3" format="ascii">3.2075520121580496e-06 2.3932601966597753e-20 0.0000000000000000e+00  6.6229349760596202e-20 -7.5089762769108399e-20 0.0000000000000000e+00  2.8692827497933225e-18 -1.5556761439304822e-04 0.0000000000000000e+00  -3.1846453583291666e-18 -1.5556761439304792e-04 0.0000000000000000e+00  -3.4741585727227309e-18 1.5556761439304803e-04 0.0000000000000000e+00  2.9158116592494357e-18 1.5556761439304787e-04 0.0000000000000000e+00  6.3122460509051306e-20 6.0363554296297932e-20 0.0000000000000000e+00  3.2941890068698790e-06 -2.3981562715691569e-20 0.0000000000000000e+00  7.6775936695383254e-21 -4.9879103609665107e-22 0.0000000000000000e+00  -8.4130316399843329e-22 5.8142031801001209e-20 0.0000000000000000e+00  3.6595920021555886e-22 -7.0309640260376153e-20 0.0000000000000000e+00  5.8368295045021424e-20 -2.3493569380993020e-22 0.0000000000000000e+00  5.4733053884701179e-20 3.2583854031170507e-22 0.0000000000000000e+00  6.1254805789843680e-20 1.8666967633208125e-22 0.0000000000000000e+00  4.8433701069969508e-20 -2.2073493884662189e-22 0.0000000000000000e+00  5.8873552841046528e-20 1.7453445840851545e-22 0.0000000000000000e+00  6.1600181299755222e-20 8.4984349798147435e-23 0.0000000000000000e+00  5.0032754405288312e-20 -1.1133819297266158e-22 0.0000000000000000e+00  7.0586442482642425e-20 -9.2280549616832935e-23 0.0000000000000000e+00  5.6719690550752969e-20 3.6178281245730519e-22 0.0000000000000000e+00  5.5104939108921463e-20 2.1032795515865870e-22 0.0000000000000000e+00  5.0573792167327806e-20 -1.4227503888816058e-22 0.0000000000000000e+00  5.1340154005633306e-20 -1.0451128122386745e-22 0.0000000000000000e+00  5.9656959300031584e-20 -6.7728421925429466e-22 0.0000000000000000e+00  5.6399109848694936e-20 2.4274057249610413e-22 0.0000000000000000e+00  5.4553266138882273e-20 8.8413288705801551e-23 0.0000000000000000e+00  6.1982114984149504e-20 -2.4661854144083927e-22 0.0000000000000000e+00  5.9012131165203388e-20 1.9338810725125424e-22 0.0000000000000000e+00  6.1378383086142988e-20 3.3912207769483175e-23 0.0000000000000000e+00  4.9554971426608369e-20 -1.4762684654046276e-22 0.0000000000000000e+00  5.6440187976370017e-20 1.8833745107887037e-22 0.0000000000000000e+00  5.7359084967866058e-20 3.1008998993703960e-22 0.0000000000000000e+00  4.9944785336845273e-20 -1.1399926042125164e-22 0.0000000000000000e+00  8.1812653840168269e-06 -1.1956467483465209e-09 0.0000000000000000e+00  7.8574152074436269e-06 2.3710434956084455e-23 0.0000000000000000e+00  4.7790911613072461e-20 3.5081691379383095e-23 0.0000000000000000e+00  8.1811143867391538e-06 2.7580961231282266e-09 0.0000000000000000e+00  5.8638032587191254e-20 -5.5119897373783075e-22 0.0000000000000000e+00  8.1743044691740583e-06 -3.9790559572001333e-09 0.0000000000000000e+00  8.1727432266976854e-06 -4.4538327202847196e-10 0.0000000000000000e+00  5.6490026212311655e-20 2.5174704113367384e-23 0.0000000000000000e+00  5.9979263997279404e-20 -1.1424252892043791e-21 0.0000000000000000e+00  8.1737974904281646e-06 -2.1095904961396248e-10 0.0000000000000000e+00  8.1567498563292491e-06 -3.1419908919643103e-08 0.0000000000000000e+00  5.2877759727562758e-20 -2.2415120519987485e-22 0.0000000000000000e+00  5.8056416172941905e-20 1.0396540187152013e-21 0.0000000000000000e+00  8.1719057158241208e-06 2.4003592082786883e-10 0.0000000000000000e+00  8.1801900594427116e-06 -7.9751387674375604e-10 0.0000000000000000e+00  8.1779833891655425e-06 -6.8823029651048689e-10 0.0000000000000000e+00  -4.2296336401798500e-21 7.4839635233299941e-20 0.0000000000000000e+00  6.1799072660078501e-06 -3.1997842077444696e-07 0.0000000000000000e+00  8.1706231108826883e-06 2.0092815286588634e-09 0.0000000000000000e+00  8.1684897978112678e-06 4.2053238929625251e-10 0.0000000000000000e+00  -6.3854527017124747e-21 -8.3314046488824023e-20 0.0000000000000000e+00  5.3314375418457349e-20 9.9080929695759988e-23 0.0000000000000000e+00  5.9802847295263236e-20 7.3102753793119583e-22 0.0000000000000000e+00  8.1744608418127493e-06 -2.8480306406375504e-09 0.0000000000000000e+00  8.1770817210597422e-06 2.1624830421170324e-09 0.0000000000000000e+00  8.1780453882220745e-06 -2.0861763393783669e-09 0.0000000000000000e+00  8.0519535722526452e-06 -2.5919424198007192e-07 0.0000000000000000e+00  8.1722308348760711e-06 -6.1484725819825893e-09 0.0000000000000000e+00  -3.7368337416024536e-20 1.1101666428044480e-20 0.0000000000000000e+00  3.3123225289145753e-21 -3.3423695151379904e-20 0.0000000000000000e+00  4.7156632797535896e-21 3.3405614684055963e-20 0.0000000000000000e+00  -4.0900529915027579e-20 9.3670794036164553e-21 0.0000000000000000e+00  8.0933954705356850e-06 -7.8196636939225573e-08 0.0000000000000000e+00  4.8981119737856317e-20 -1.4790857288158755e-22 0.0000000000000000e+00  8.0612988820350453e-06 4.6534696664708275e-07 0.0000000000000000e+00  8.1628124436656378e-06 2.3241196818016242e-10 0.0000000000000000e+00  8.1664651136725565e-06 6.8908708731219872e-10 0.0000000000000000e+00  8.1737806426248709e-06 -3.5096654515384887e-09 0.0000000000000000e+00  8.0845716227447701e-06 1.4951735365124195e-07 0.0000000000000000e+00  8.1728797125194161e-06 -1.6561130133559918e-09 0.0000000000000000e+00  5.2610988072971382e-20 -8.8911910907696041e-24 0.0000000000000000e+00  8.1663306855721863e-06 -1.1402407713611100e-10 0.0000000000000000e+00  6.7272240398037279e-20 9.3300516635103610e-22 0.0000000000000000e+00  8.1801778628801397e-06 -6.2314551861708372e-09 0.0000000000000000e+00  3.9109067778928562e-06 3.1934011312005708e-06 0.0000000000000000e+00  -2.0045386457523503e-19 -1.5556761439304876e-04 0.0000000000000000e+00  -2.8069986209291930e-19 1.5556761439304884e-04 0.0000000000000000e+00  4.0482128701691211e-06 -3.9782149541407533e-06 0.0000000000000000e+00  8.1631985187357175e-06 -1.1375874465219489e-08 0.0000000000000000e+00  8.1702455704895072e-06 7.3428965436575067e-09 0.0000000000000000e+00  5.5604807243818117e-20 5.1265547166202944e-22 0.0000000000000000e+00  8.1695446292643313e-06 -2.5208303025036540e-09 0.0000000000000000e+00  5.6200465065328380e-20 3.5870276396575979e-22 0.0000000000000000e+00  8.1711213780067736e-06 -2.5962593539699509e-09 0.0000000000000000e+00  6.4131417348015533e-20 1.2013685789715205e-22 0.0000000000000000e+00  5.3200514944653960e-20 -8.9412605592885887e-24 0.0000000000000000e+00  6.1146912932665594e-20 3.1315081359770810e-22 0.0000000000000000e+00  8.1737593291306563e-06 2.5291312287124928e-09 0.0000000000000000e+00  5.2681551114476230e-20 2.0005291625175642e-22 0.0000000000000000e+00  6.1332523961221693e-20 1.6119397103337148e-22 0.0000000000000000e+00  8.1686059110778033e-06 6.2939698246069607e-10 0.0000000000000000e+00  8.1765643556346489e-06 1.3030181805393148e-09 0.0000000000000000e+00  6.0969764078227492e-20 4.7452610678118118e-23 0.0000000000000000e+00  8.1750002329583404e-06 5.6090961063511589e-09 0.0000000000000000e+00  6.4358344494771711e-20 6.6943480805491611e-22 0.0000000000000000e+00  8.1787802658708628e-06 -1.0383038156467455e-08 0.0000000000000000e+00  5.1545223651106897e-20 1.4969059802104888e-23 0.0000000000000000e+00  8.1615536814254459e-06 5.5074954553805237e-09 0.0000000000000000e+00  6.0660689742765087e-20 5.8688747816142697e-24 0.0000000000000000e+00  5.7137469527988884e-20 4.9963906897021905e-22 0.0000000000000000e+00  6.0799626878849731e-20 1.0237876741209722e-21 0.0000000000000000e+00  6.2970212816394196e-20 -3.8343048719869988e-22 0.0000000000000000e+00  8.1755090530612045e-06 6.1922159869845533e-09 0.0000000000000000e+00  8.1774219334077478e-06 9.6674438198433025e-09 0.0000000000000000e+00  8.1750361634182349e-06 1.0098633173476240e-09 0.0000000000000000e+00  -1.7035419134326011e-06 -8.9816300110939574e-06 0.0000000000000000e+00  1.0946418469492819e-20 -1.2128487589291476e-19 0.0000000000000000e+00  8.2039155778898077e-06 -6.9066297791425601e-08 0.0000000000000000e+00  8.1866220533774929e-06 -2.2727834521611227e-08 0.0000000000000000e+00  8.0783008459142677e-06 2.0635777913350398e-08 0.0000000000000000e+00  8.1555545560180810e-06 -8.7591851952323943e-09 0.0000000000000000e+00  1.3725732192682061e-06 7.3081540393602469e-06 0.0000000000000000e+00  8.1626630488466260e-06 -1.4053900880286109e-11 0.0000000000000000e+00  8.1800152928826113e-06 -8.3504579891136383e-13 0.0000000000000000e+00  2.3530350744121117e-20 6.7649758389348210e-20 0.0000000000000000e+00  -1.5038484137909486e-06 7.7706817116893589e-06 0.0000000000000000e+00  8.1615310625109954e-06 -5.5959356191931291e-09 0.0000000000000000e+00  1.3662609018590910e-06 -8.4120744676613584e-06 0.0000000000000000e+00  8.1755996075961986e-06 -1.3571847039382821e-09 0.0000000000000000e+00  5.2046441550999318e-20 -4.5752617004308811e-22 0.0000000000000000e+00  8.1597355079310062e-06 -2.4929276889876287e-08 0.0000000000000000e+00  8.1675288208891458e-06 7.5985966408347569e-11 0.0000000000000000e+00  8.1639577677304015e-06 3.7691213188774840e-08 0.0000000000000000e+00  8.1776122221126579e-06 -1.8189141234829058e-09 0.0000000000000000e+00  8.1740823780643902e-06 -9.6567076601687367e-09 0.0000000000000000e+00  8.1588338705363607e-06 -1.5030774030788312e-06 0.0000000000000000e+00  5.5901936221993786e-20 -8.1241040252777548e-22 0.0000000000000000e+00  8.1592127474010315e-06 -2.9053235214223396e-09 0.0000000000000000e+00  7.9875174090862349e-22 -7.5392316068975660e-20 0.0000000000000000e+00  5.8741300182251002e-22 6.7778997699798729e-20 0.0000000000000000e+00  -1.8636147515653487e-05 -2.0515805717673186e-05 0.0000000000000000e+00  -1.5169280296528412e-05 1.6866345971710815e-05 0.0000000000000000e+00  5.5019620260169993e-20 2.1221131107438201e-23 0.0000000000000000e+00  6.4785285449183969e-20 9.3034731103195402e-22 0.0000000000000000e+00  5.2974979604866184e-20 1.0308702793952849e-22 0.0000000000000000e+00  8.1596019959376836e-06 9.9456278642898841e-09 0.0000000000000000e+00  8.1630132415634866e-06 6.0040504944768910e-09 0.0000000000000000e+00  7.4257998851704667e-06 -1.9482988806689843e-21 0.0000000000000000e+00  5.4327289088228004e-20 -1.9806824146749794e-21 0.0000000000000000e+00  8.1628796678942663e-06 2.3078772496467716e-09 0.0000000000000000e+00  6.0674500666638389e-20 4.0765459628235044e-22 0.0000000000000000e+00  5.4943868126326044e-20 -1.1324407493059507e-22 0.0000000000000000e+00  8.1708958191975079e-06 -1.0390015913414093e-09 0.0000000000000000e+00  8.1797731692681914e-06 8.7401883592271432e-10 0.0000000000000000e+00  7.4173212948164030e-06 2.5782148305344865e-21 0.0000000000000000e+00  5.9532628262970455e-20 -7.0803964981969332e-22 0.0000000000000000e+00  3.0398375582674496e-06 -2.9473551598932145e-07 0.0000000000000000e+00  6.1368188159254385e-20 1.9759734691902777e-21 0.0000000000000000e+00  6.8458831627272208e-20 -2.6510405833133304e-21 0.0000000000000000e+00  8.1712506933423315e-06 -3.6617555007169305e-09 0.0000000000000000e+00  8.1429749412350290e-06 -9.6605309899594293e-09 0.0000000000000000e+00  8.1820067070090959e-06 5.6010163376922830e-11 0.0000000000000000e+00  8.1665692658443052e-06 5.1495317123486371e-09 0.0000000000000000e+00  6.3620201876504358e-20 6.0694084722744425e-23 0.0000000000000000e+00  6.6020749903937100e-20 1.5563159631760347e-22 0.0000000000000000e+00  5.8033811737463519e-20 -1.0823828514958534e-21 0.0000000000000000e+00  5.2239998984934063e-20 1.1543299059665207e-21 0.0000000000000000e+00  8.1650451809937413e-06 -1.3168285892301552e-09 0.0000000000000000e+00  8.1660569461712463e-06 3.1040697344381816e-09 0.0000000000000000e+00  8.1641441860265014e-06 -2.7008097068780211e-09 0.0000000000000000e+00  7.4049946028978049e-06 2.2097300239409155e-06 0.0000000000000000e+00  8.1755056750560281e-06 -2.3504224700842069e-09 0.0000000000000000e+00  8.1621590630063297e-06 2.6452945595577191e-09 0.0000000000000000e+00  8.1734987893813303e-06 2.4019437400389000e-09 0.0000000000000000e+00  8.1280290598446549e-06 9.1394163984541206e-09 0.0000000000000000e+00  8.1697806623580210e-06 5.8250445750213719e-10 0.0000000000000000e+00  8.1439327182139533e-06 2.2437662066523995e-09 0.0000000000000000e+00  8.1628635806491100e-06 1.5322316112434976e-09 0.0000000000000000e+00  8.1279566846264689e-06 5.9761035310262107e-10 0.0000000000000000e+00  8.1723333194163852e-06 -7.8433638229438094e-09 0.0000000000000000e+00  8.1479533914556078e-06 4.7869931510898878e-09 0.0000000000000000e+00  8.1404235840598310e-06 -3.0112621864006053e-09 0.0000000000000000e+00  8.1591584495551065e-06 3.3477411392067954e-09 0.0000000000000000e+00  8.1706830674242001e-06 1.0194710592038342e-08 0.0000000000000000e+00  8.1156146010186387e-06 -9.4482582366696305e-09 0.0000000000000000e+00  8.1149064439999450e-06 8.8371400468551776e-09 0.0000000000000000e+00  8.1282204634463666e-06 -1.2575517172489620e-09 0.0000000000000000e+00  8.1115926969403761e-06 -5.8638287382585555e-09 0.0000000000000000e+00  8.1321636025571551e-06 -4.9689981749002374e-09 0.0000000000000000e+00  8.1718278275179493e-06 -2.2250561383950483e-09 0.0000000000000000e+00  8.1765186051489415e-06 -1.5103561601744497e-09 0.0000000000000000e+00  8.1801065553156672e-06 1.9190509340535536e-09 0.0000000000000000e+00  8.1404463828718365e-06 -7.7120389267196550e-09 0.0000000000000000e+00  7.4917331423238816e-06 -4.5745960831395512e-07 0.0000000000000000e+00  8.3675374269840168e-06 -2.4781158739086085e-07 0.0000000000000000e+00  8.1234410290015540e-06 -7.9003775953858296e-08 0.0000000000000000e+00  8.1747762327105347e-06 -2.4934852892884916e-09 0.0000000000000000e+00  8.1791290085969087e-06 -5.4895780065274511e-09 0.0000000000000000e+00  8.1793402701812985e-06 -1.2955674795032928e-09 0.0000000000000000e+00  5.3086713704563991e-21 -2.1538038131565961e-20 0.0000000000000000e+00  7.2819758709434400e-21 1.7337032831160616e-20 0.0000000000000000e+00  8.1749730292243629e-06 3.9356932952301518e-09 0.0000000000000000e+00  8.1731933414304759e-06 -1.2902146531161751e-08 0.0000000000000000e+00  8.1805999827054313e-06 1.5896732907585241e-09 0.0000000000000000e+00  8.1173459327975852e-06 3.6500274842173576e-09 0.0000000000000000e+00  8.1331592784388590e-06 4.3744557105865260e-09 0.0000000000000000e+00  8.1778236409907271e-06 -1.0994521752644141e-07 0.0000000000000000e+00  8.0740725160843418e-06 -5.0749217801409919e-07 0.0000000000000000e+00  7.9662476112125376e-06 8.7238818081826241e-09 0.0000000000000000e+00  8.1219493010308558e-06 7.0865203240833893e-09 0.0000000000000000e+00  8.1239396123597166e-06 -7.0286422833038165e-10 0.0000000000000000e+00  7.8081025364923215e-06 3.5654832723947527e-09 0.0000000000000000e+00  8.1470837255031338e-06 1.0761435002041539e-07 0.0000000000000000e+00  8.1729844844976678e-06 -1.1376348534870903e-09 0.0000000000000000e+00  8.0926121077794323e-06 9.6043459426586527e-09 0.0000000000000000e+00  6.6516433395523948e-08 -9.6145198482953104e-06 0.0000000000000000e+00  8.1743818273191471e-06 5.0520540213210627e-09 0.0000000000000000e+00  9.4499352636921790e-08 8.3399098276272132e-06 0.0000000000000000e+00  -3.2841996926117185e-19 -3.5770954707683810e-19 0.0000000000000000e+00  -6.4106136714833655e-21 4.8334892461095823e-20 0.0000000000000000e+00  3.1824978505918132e-21 5.5186127217026371e-20 0.0000000000000000e+00  2.8642636062730281e-21 -5.7393125486687687e-20 0.0000000000000000e+00  -7.1705302107140010e-21 -6.1521070793372304e-20 0.0000000000000000e+00  -3.7928082674892038e-19 2.9282252187541993e-19 0.0000000000000000e+00  8.1471936242337593e-06 -5.6575059975710121e-09 0.0000000000000000e+00  7.8582581075779928e-06 -3.8183339800827122e-09 0.0000000000000000e+00  7.8587384529285175e-06 -1.8794302543266471e-08 0.0000000000000000e+00  7.8504661597990276e-06 2.7368913484449828e-09 0.0000000000000000e+00  7.8544854131587275e-06 -1.0908233631982858e-09 0.0000000000000000e+00  7.8478362367609772e-06 8.6725897888251101e-09 0.0000000000000000e+00  8.1050354362402741e-06 1.0737852556211002e-08 0.0000000000000000e+00  8.1400602635286491e-06 1.1848218908081261e-07 0.0000000000000000e+00  8.1076476887411787e-06 -1.4053552398768476e-09 0.0000000000000000e+00  8.1642533524844809e-06 -4.5946584093752785e-09 0.0000000000000000e+00  8.1762080074950032e-06 2.2990324091641305e-09 0.0000000000000000e+00  8.1788602418824667e-06 -1.7998605197523267e-09 0.0000000000000000e+00  -1.4662782477473505e-06 1.2062631267072790e-05 0.0000000000000000e+00  -2.9977865526954507e-06 -1.2553929648213140e-05 0.0000000000000000e+00  7.8733035731944066e-06 -2.6800332327180566e-08 0.0000000000000000e+00  8.0910696843458665e-06 1.0123882364441515e-08 0.0000000000000000e+00  8.1797696712314532e-06 -1.6424771672436999e-09 0.0000000000000000e+00  8.1780116661924705e-06 -1.8670063093761045e-09 0.0000000000000000e+00  5.4847756946035062e-20 6.5181317353398776e-22 0.0000000000000000e+00  7.2344444476326986e-06 5.2884413681447918e-07 0.0000000000000000e+00  3.3555224964586889e-05 3.9201041117027432e-05 0.0000000000000000e+00  3.4031753083625015e-05 -4.1783643925145392e-05 0.0000000000000000e+00  8.1827982982020370e-06 -1.3143118665847345e-09 0.0000000000000000e+00  7.7915530313939987e-06 7.8436048439681588e-09 0.0000000000000000e+00  5.5308103228226528e-20 1.5857979639788111e-22 0.0000000000000000e+00  7.8268566121442609e-06 -1.2606953019677263e-08 0.0000000000000000e+00  8.1828753669580432e-06 1.4434585210719511e-09 0.0000000000000000e+00  8.0712071044674456e-06 6.4954990470398090e-07 0.0000000000000000e+00  8.1688241042722404e-06 3.3414009266940751e-10 0.0000000000000000e+00  6.1478400602385642e-20 -5.8886415836718538e-22 0.0000000000000000e+00  8.1785352770286040e-06 3.2838367856296095e-09 0.0000000000000000e+00  8.1753969979533429e-06 -3.6455768760816507e-09 0.0000000000000000e+00  8.1080864186082272e-06 -2.7689080336274180e-09 0.0000000000000000e+00  8.1300265956610221e-06 1.5509511663467102e-09 0.0000000000000000e+00  8.1098818802392389e-06 -6.1348337712312935e-09 0.0000000000000000e+00  6.0370236441657968e-20 4.7720353986645919e-22 0.0000000000000000e+00  8.1347964963160649e-06 -2.3689067866848307e-09 0.0000000000000000e+00  8.1793853243269273e-06 6.5123284649024143e-09 0.0000000000000000e+00  7.8682614246955288e-06 1.8443683235358892e-08 0.0000000000000000e+00  8.1780933491522423e-06 -3.5337422857152858e-10 0.0000000000000000e+00  8.1790487824447254e-06 -4.0203348598708905e-08 0.0000000000000000e+00  8.1719921573511647e-06 1.1317890655627233e-09 0.0000000000000000e+00  8.1730368822826770e-06 -1.9193106395969629e-09 0.0000000000000000e+00  7.8882459060736745e-06 -1.2361516884037226e-07 0.0000000000000000e+00  8.1294332144553514e-06 4.9538517440987487e-09 0.0000000000000000e+00  8.1262369137603109e-06 -7.2791868547222238e-09 0.0000000000000000e+00  8.1181166655958488e-06 -5.2514440620994846e-09 0.0000000000000000e+00  8.1325077998785651e-06 -1.3135854357543489e-08 0.0000000000000000e+00  8.1714523188898459e-06 2.5346116345145254e-09 0.0000000000000000e+00  6.0458232836146835e-20 -6.8377522607112172e-22 0.0000000000000000e+00  7.5630837996496055e-06 -4.3710398595622571e-06 0.0000000000000000e+00  4.4662211296962624e-06 -8.2292430555839555e-06 0.0000000000000000e+00  1.9046852698455771e-06 -6.1848554242622735e-06 0.0000000000000000e+00  5.8462070024701463e-06 -2.0912089795937723e-06 0.0000000000000000e+00  8.1806016328211867e-06 4.2725703418357223e-10 0.0000000000000000e+00  8.1739007518900424e-06 -4.3135470729936078e-09 0.0000000000000000e+00  8.1728892685228435e-06 6.9488316302791014e-10 0.0000000000000000e+00  8.1727060587917643e-06 -1.5618273760976757e-09 0.0000000000000000e+00  8.1620273200678973e-06 -1.7264541442904689e-08 0.0000000000000000e+00  8.1247882401200807e-06 1.8098486141142411e-08 0.0000000000000000e+00  6.3694365729195538e-20 1.5581797171757116e-22 0.0000000000000000e+00  8.1189796071788467e-06 1.1329448115550042e-08 0.0000000000000000e+00  8.1729851385709837e-06 -2.4205940031014904e-09 0.0000000000000000e+00  8.1727467041257087e-06 4.2361243697629876e-11 0.0000000000000000e+00  8.1170844397040578e-06 7.2827856242058517e-09 0.0000000