<?xml version="1.0"?>
<VTKFile type="UnstructuredGrid"  version="0.1"  >
<UnstructuredGrid>
<Piece  NumberOfPoints="1079" NumberOfCells="1944">
<Points>
<DataArray  type="Float64"  NumberOfComponents="3"  format="ascii">0.08500000000000001 0.02 0  0.005 0.02 0  0.005 0.03 0  0 0.03 0  0 0 0  0.005 0 0  0.005 0.01 0  0.08500000000000001 0.01 0  0 0.015 0  0 0.0075 0  0 0.0225 0  0.04500000000000001 0.02 0  0.04500000000000001 0.01 0  0.025 0.01 0  0.025 0.02 0  0.065 0.02 0  0.065 0.01 0  0.035 0.02 0  0.035 0.01 0  0.07500000000000001 0.02 0  0.07500000000000001 0.01 0  0.015 0.02 0  0.015 0.01 0  0.05500000000000001 0.01 0  0.05500000000000001 0.02 0  0.07000000000000001 0.01 0  0.07000000000000001 0.02 0  0.05 0.01 0  0.03 0.01 0  0.03 0.02 0  0.04000000000000001 0.01 0  0.01 0.01 0  0.02 0.02 0  0.06 0.015 0  0.08500000000000001 0.015 0  0.05 0.02 0  0.07250000000000001 0.015 0  0.04000000000000001 0.02 0  0.03750000000000001 0.015 0  0.0525 0.015 0  0.02 0.01 0  0.01 0.02 0  0.0275 0.015 0  0.0125 0.015 0  0.08000000000000002 0.01 0  0.08000000000000002 0.02 0  0.0325 0.014375 0  0.04291666666666667 0.015 0  0.065 0.015 0  0.005 0.005 0  0.005 0.015 0  0.02208333333333334 0.015 0  0.07791666666666668 0.015 0  0.005 0.025 0  0.06 0.01 0  0.06 0.02 0  0.01729166666666667 0.01572916666666667 0  0.04770833333333334 0.01427083333333334 0  0.06875000000000001 0.01625 0  0.008750000000000001 0.01625 0  0.05625000000000001 0.01625 0  0 0.00375 0  0 0.01875 0  0 0.01125 0  0 0.02625 0  0.08145833333333334 0.01354166666666667 0  0.0675 0.01 0  0.0075 0.0125 0  0.0625 0.0175 0  0.0575 0.0125 0  0.0625 0.0125 0  0.08207465277777778 0.01707465277777778 0  0.06767857142857144 0.01321428571428571 0  0.0175 0.01 0  0.01875 0.01291382575757576 0  0.0475 0.02 0  0.04564168086314595 0.01679860519591141 0  0.00296875 0.0125 0  0.0025 0.03 0  0.0025 0 0  0.00296875 0.0175 0  0.01521990740740741 0.0132349537037037 0  0.0497800925925926 0.0167650462962963 0  0.0325 0.02 0  0.03474264705882353 0.01674632352941176 0  0.03750000000000001 0.02 0  0.03025735294117647 0.01674632352941176 0  0.0275 0.02 0  0.0525 0.02 0  0.0125 0.01 0  0.04020833333333334 0.01322916666666667 0  0.03750000000000001 0.01 0  0.0225 0.02 0  0.02479166666666667 0.01677083333333333 0  0.07520833333333335 0.01322916666666667 0  0.07250000000000001 0.01 0  0.07520833333333335 0.01677083333333334 0  0.07250000000000001 0.02 0  0.04020833333333334 0.01677083333333333 0  0.0225 0.01 0  0.02375 0.01262152777777778 0  0.04250000000000001 0.02 0  0.04250000000000001 0.01 0  0.07750000000000001 0.01 0  0.07750000000000001 0.02 0  0.05036151960784314 0.01294424019607843 0  0.0705560064935065 0.01284699675324675 0  0.05458333333333334 0.01291666666666666 0  0.0021875 0.024375 0  0.005 0.0275 0  0.01125 0.0175 0  0.01463848039215686 0.01705575980392157 0  0.01 0.01375 0  0.03625 0.0125 0  0.0021875 0.009375 0  0.05375000000000001 0.0175 0  0.07125000000000001 0.0175 0  0.005 0.0025 0  0.0021875 0.005625 0  0.02655220103578155 0.01234889948210923 0  0.002187499999999999 0.020625 0  0.02979166666666667 0.01302083333333333 0  0.0525 0.01 0  0.07895833333333334 0.0125 0  0.01994277885235332 0.01704213007736944 0  0.07934656179076068 0.01733823814273861 0  0.04505722114764669 0.01295786992263056 0  0.06625 0.0175 0  0.006250000000000001 0.0175 0  0.05750000000000001 0.02 0  0.05875000000000001 0.0175 0  0.005 0.0225 0  0.005 0.0075 0  0.002375 0.027375 0  0.002375 0.002625000000000001 0  0.0475 0.01 0  0.0175 0.02 0  0.0325 0.01 0  0.03375 0.0121875 0  0.04261299435028249 0.01749205508474576 0  0.08500000000000001 0.0125 0  0.08250000000000002 0.01 0  0.02121963399965531 0.01224824108143494 0  0.0675 0.02 0  0.0125 0.02 0  0.02720152243589744 0.0175 0  0.03715165441176471 0.0175 0  0.08500000000000001 0.0175 0  0.0275 0.01 0  0.0025 0.0149560546875 0  0.0075 0.01 0  0.0075 0.02 0  0.06526785714285716 0.0125 0  0.01281031447005516 0.0125 0  0.0625 0.015 0  0.06 0.0125 0  0.05750000000000001 0.01 0  0.0625 0.02 0  0.0625 0.01 0  0.08250000000000002 0.02 0  0.04260103740101855 0.01252623201412851 0  0.02240052247582197 0.01750164767101344 0  0.07293583459427785 0.01238479732953041 0  0.005234374999999999 0.012265625 0  0.03528131980640358 0.01454684009679821 0  0.0325 0.01760027210036557 0  0.02532593822924343 0.01428227733767297 0  0.08009952069819683 0.01527145502895417 0  0.01987282359856536 0.01482587683689801 0  0.04828232595121382 0.01210233572595705 0  0.01671767404878618 0.01789766427404295 0  0.05125 0.01829007549029352 0  0.05247215456215357 0.01288882122882024 0  0.07338729919678716 0.01799385040160642 0  0.03838729919678716 0.01200614959839357 0  0.07717482110586968 0.01780301674207099 0  0.04771860040890012 0.01773306039388322 0  0.03125 0.01160380747126437 0  0.06875000000000001 0.01154265873015873 0  0.07625000000000001 0.01154065860215054 0  0.01625 0.01153997817696946 0  0.068125 0.018125 0  0.05437500000000001 0.015625 0  0.066875 0.015625 0  0.07039794950204951 0.01494384850614853 0  0.05687500000000001 0.018125 0  0.006875 0.015625 0  0.008749999999999999 0.01833333333333333 0  0.010625 0.015625 0  0.05625 0.01416666666666667 0  0.05812500000000001 0.015625 0  0.0449088595298192 0.01494528408816316 0  0 0.016875 0  0 0.013125 0  0.04962452342047931 0.01478673066448802 0  0.0153754765795207 0.01521326933551198 0  0.0771774565913315 0.01322498191305479 0  0.01857756431135545 0.01840228599899994 0  0.04642243568864456 0.01159771400100006 0  0.08125000000000002 0.01155637254901961 0  0.08317650804863432 0.0118234919513657 0  0.08288217288011697 0.01511353252923977 0  0.02837253504384828 0.0117177464035174 0  0.03896057962520807 0.01831163685754031 0  0.01125 0.0114244162490927 0  0.00935910490099115 0.0119067901980177 0  0.02946078431372549 0.01495404411764706 0  0.02875 0.0185829434466942 0  0.002968749999999999 0.0225 0  0.064375 0.016875 0  0.00296875 0.0075 0  0 0.001875 0  0 0.005625 0  0 0.009375 0  0 0.020625 0  0 0.024375 0  0 0.028125 0  0.06062500000000001 0.01812500000000001 0  0.008303571428571429 0.01446428571428572 0  0.01375 0.01865917058160413 0  0.05137790313978056 0.01143372888932909 0  0.04125000000000001 0.01131513063942604 0  0.04101690263896279 0.01844430285842771 0  0.02399563533148224 0.01844349395710867 0  0.08125000000000002 0.01868815426145731 0  0.05354684380692146 0.01145463537600848 0  0.01699195823639423 0.01315138909884649 0  0.07598357371794873 0.015 0  0.04098357371794872 0.015 0  0.003744047619047619 0.00375 0  0.003344630281690141 0.02580853873239437 0  0.04625 0.0187354532243972 0  0.06388392857142858 0.01138392857142858 0  0.06375 0.01375 0  0.05875 0.01375 0  0.06375 0.02 0  0.00622802734375 0.01372802734375 0  0.003630681818181818 0.001369318181818182 0  0.003630681818181818 0.02863068181818182 0  0.06125 0.01625 0  0.06125 0.01125 0  0.05625000000000001 0.01 0  0.05875 0.01125 0  0.06125 0.01375 0  0.08337864763241221 0.0183786476324122 0  0.05213634138653413 0.01674432930673294 0  0.04375000000000001 0.01 0  0.07424178685897437 0.01529258578431373 0  0.03924178685897436 0.01529258578431372 0  0.03410139294454583 0.01843406022904556 0  0.03089860705545417 0.01843406022904556 0  0.02094160484316717 0.01850229584291991 0  0.04375000000000001 0.02 0  0.04437042160883325 0.01820701498672512 0  0.04816311705429156 0.01600061344661149 0  0.07151224904251052 0.0114127410511319 0  0.04395528506193162 0.01639387970349481 0  0.0128750358694518 0.0167500179347259 0  0.02855808448399799 0.01642839899839741 0  0.02812690373330794 0.01340955081400569 0  0.08358500641945087 0.01351822349116885 0  0.05590277777777778 0.01173611111111111 0  0.06683110430364615 0.01164926404662283 0  0.02573206694914602 0.01842532451809762 0  0.01438126661842046 0.01166701193099454 0  0.02384283211216029 0.01526549696571563 0  0.03625 0.02 0  0.004609375000000001 0.0182421875 0  0.003398437500000001 0.01943359375 0  0.001728307845744682 0.01894718251329787 0  0.004377805359085963 0.01656966216675735 0  0.04649673309852075 0.0153889662370871 0  0.03615513600614297 0.01592654988586041 0  0.03316985071935832 0.01598763605018279 0  0.03110111603888768 0.01529816275177977 0  0.01370614113484869 0.0138804542047638 0  0.04930041102671841 0.01842260568883502 0  0.07875000000000001 0.02 0  0.0745395359848485 0.01165101111925709 0  0.03860755698543604 0.01373741558556884 0  0.02605038706571737 0.01573944002207753 0  0.07559826163500957 0.01841729376139847 0  0.04437500000000001 0.01149157931286774 0  0.06874116707361365 0.01454618473032123 0  0.003761917372881356 0.0239307468220339 0  0.003984374999999999 0.01125 0  0.003768503289473684 0.01392539576480263 0  0.001796875 0.0111328125 0  0.003761917372881356 0.008930746822033899 0  0.005 0.00625 0  0.003761917372881355 0.0210692531779661 0  0.06633928571428571 0.01410714285714285 0  0.006484375 0.01125 0  0.08364120589325512 0.01657288979763549 0  0.03576267476503373 0.0184116442851204 0  0.07370875846579374 0.0137848203678562 0  0.06964285714285715 0.01758928571428571 0  0.05520833333333334 0.01833333333333333 0  0.06491071428571429 0.01839285714285714 0  0.0510098951944636 0.01559941474766356 0  0.01786087179886325 0.0115702210443714 0  0.01972197383235524 0.01160576093166696 0  0.01804697593127788 0.01433503795474974 0  0.001644074528704677 0.01642892723865279 0  0.00125 0.03 0  0.001497685185185185 0.001267746913580247 0  0.07315451164202422 0.01643443118912983 0  0.001233906745910645 0.0140625 0  0.01162635071030191 0.01362229857939618 0  0.01528023503083844 0.01845923557506155 0  0.06625 0.02 0  0.07695012019230771 0.01624387078484555 0  0.03139091092855769 0.01320776147621796 0  0.03857339107781042 0.01675295051810485 0  0.001754993120977522 0.02590789105493891 0  0.002288757784711197 0.00412546923654445 0  0.07914382119690884 0.01404430049871201 0  0.001391810103286306 0.01257390899021902 0  0.0419501201923077 0.01614675005432421 0  0.001484375 0.007018229166666667 0  0.001484375 0.02201822916666666 0  0.048
[...]
<PointData  Vectors="velocity"> 
<DataArray  type="Float64"  Name="velocity"  NumberOfComponents="3" format="ascii">3.5261144145800058e-06 2.5811270380357985e-20 0.0000000000000000e+00  7.8580228499734416e-20 -8.2160193351658532e-20 0.0000000000000000e+00  3.1484562065299701e-18 -1.7073526474707039e-04 0.0000000000000000e+00  -3.5568766339780306e-18 -1.7073526474707001e-04 0.0000000000000000e+00  -3.7636717871162921e-18 1.7073526474707009e-04 0.0000000000000000e+00  3.3811007538105156e-18 1.7073526474707001e-04 0.0000000000000000e+00  6.8738619276147351e-20 6.6620994773721343e-20 0.0000000000000000e+00  3.6213474301175714e-06 -2.7978489834973498e-20 0.0000000000000000e+00  7.5765727002022944e-21 -4.0724078263587335e-22 0.0000000000000000e+00  -9.0168867090343030e-22 6.6575533104343177e-20 0.0000000000000000e+00  3.6062322807467769e-22 -7.4643074110899672e-20 0.0000000000000000e+00  6.9653641072437214e-20 -2.2135398274429972e-22 0.0000000000000000e+00  5.9633599825917721e-20 3.4946368650184004e-22 0.0000000000000000e+00  6.9508999477836802e-20 2.0788213955163595e-22 0.0000000000000000e+00  5.6179324380766269e-20 -2.2234280791527959e-22 0.0000000000000000e+00  6.3499331992843041e-20 1.9465725478973252e-22 0.0000000000000000e+00  6.5078026114322547e-20 9.5197650168027509e-23 0.0000000000000000e+00  5.2594920766892554e-20 -1.0785676691285684e-22 0.0000000000000000e+00  7.4285546080094408e-20 -6.9829166874364164e-23 0.0000000000000000e+00  6.7409378534337340e-20 4.0174857090920305e-22 0.0000000000000000e+00  5.7626904285531146e-20 2.3594166398360074e-22 0.0000000000000000e+00  5.7997468081797939e-20 -1.3502535537793583e-22 0.0000000000000000e+00  5.4338057173904102e-20 -9.9629601221808138e-23 0.0000000000000000e+00  6.3385519256283557e-20 -7.3238320166820266e-22 0.0000000000000000e+00  6.0947575491756110e-20 2.6909642339025782e-22 0.0000000000000000e+00  5.7745212561901977e-20 1.0201533312207871e-22 0.0000000000000000e+00  7.4378537980979410e-20 -2.5934523772664720e-22 0.0000000000000000e+00  6.3408262389102384e-20 2.0326832910750160e-22 0.0000000000000000e+00  6.8584048993002772e-20 4.0016405167990143e-23 0.0000000000000000e+00  5.3947756439516510e-20 -1.3046753008379033e-22 0.0000000000000000e+00  6.0293815602918338e-20 2.0762862470817095e-22 0.0000000000000000e+00  6.4861750090245169e-20 3.5641440916543882e-22 0.0000000000000000e+00  5.8433424741921748e-20 -1.1991128520070776e-22 0.0000000000000000e+00  8.9933987162712557e-06 -1.3142473970994015e-09 0.0000000000000000e+00  8.6373846793457238e-06 2.3358172031906802e-23 0.0000000000000000e+00  5.5683838445172506e-20 3.5087097846375319e-23 0.0000000000000000e+00  8.9932326647395543e-06 3.0318889118194626e-09 0.0000000000000000e+00  6.3862041496360442e-20 -6.0531002107648634e-22 0.0000000000000000e+00  8.9857468084324499e-06 -4.3740214016325429e-09 0.0000000000000000e+00  8.9840305339904572e-06 -4.8964527665534433e-10 0.0000000000000000e+00  5.9044851518396104e-20 2.7288478305955698e-23 0.0000000000000000e+00  6.5679772559004311e-20 -1.2760309586198065e-21 0.0000000000000000e+00  8.9851894548718815e-06 -2.3136707969299829e-10 0.0000000000000000e+00  8.9664495491123829e-06 -3.4454947793404849e-08 0.0000000000000000e+00  5.2877759727562758e-20 -2.2501665386860023e-22 0.0000000000000000e+00  6.3482433273544961e-20 1.1274334989329767e-21 0.0000000000000000e+00  8.9831099606020779e-06 2.6398092454968726e-10 0.0000000000000000e+00  8.9922166872526557e-06 -8.7665400029157289e-10 0.0000000000000000e+00  8.9897907902035019e-06 -7.5655824121794419e-10 0.0000000000000000e+00  -4.3789148274803159e-21 8.0412799559183980e-20 0.0000000000000000e+00  6.7933828187009962e-06 -3.5096393739211442e-07 0.0000000000000000e+00  8.9816999742756440e-06 2.2122186748508279e-09 0.0000000000000000e+00  8.9793542234677134e-06 4.6228064324694683e-10 0.0000000000000000e+00  -6.8798144167362338e-21 -9.5170511632315324e-20 0.0000000000000000e+00  5.7838019393356762e-20 1.2495556738700942e-22 0.0000000000000000e+00  6.8209098657628904e-20 7.8210743907404939e-22 0.0000000000000000e+00  8.9859139441970525e-06 -3.1143936881459062e-09 0.0000000000000000e+00  8.9887996381230400e-06 2.3771565604591825e-09 0.0000000000000000e+00  8.9898590667716373e-06 -2.2931984977072607e-09 0.0000000000000000e+00  8.8511443192502408e-06 -2.8466126654377773e-07 0.0000000000000000e+00  8.9834674626670626e-06 -6.7589405640588845e-09 0.0000000000000000e+00  -3.9221464322257470e-20 1.2073609101286511e-20 0.0000000000000000e+00  3.6342545241654521e-21 -3.3881553989070041e-20 0.0000000000000000e+00  5.2556247240001838e-21 3.9021213704220545e-20 0.0000000000000000e+00  -4.6620883749297170e-20 1.1369203245610812e-20 0.0000000000000000e+00  8.8968033771913854e-06 -8.5961420361287557e-08 0.0000000000000000e+00  5.2264770223075731e-20 -1.5819670306395632e-22 0.0000000000000000e+00  8.8618341274616772e-06 5.1184876708972217e-07 0.0000000000000000e+00  8.9731142937769373e-06 2.5643176928337527e-10 0.0000000000000000e+00  8.9771296943345724e-06 7.5711138950816458e-10 0.0000000000000000e+00  8.9851711411132316e-06 -3.8585959364451355e-09 0.0000000000000000e+00  8.8871030959675419e-06 1.6436324655176983e-07 0.0000000000000000e+00  8.9841805126675669e-06 -1.8204597058723178e-09 0.0000000000000000e+00  5.8533080148678891e-20 -1.7081956882524644e-23 0.0000000000000000e+00  8.9769879883290831e-06 -1.1745687063541879e-10 0.0000000000000000e+00  7.7571247885684677e-20 1.0588324686020475e-21 0.0000000000000000e+00  8.9922033283242818e-06 -6.8498280569940163e-09 0.0000000000000000e+00  4.2994082219231854e-06 3.5115927564176207e-06 0.0000000000000000e+00  -1.8733452273386830e-19 -1.7073526474707096e-04 0.0000000000000000e+00  -2.9292011215172113e-19 1.7073526474707104e-04 0.0000000000000000e+00  4.4498329723323883e-06 -4.3719535421485383e-06 0.0000000000000000e+00  8.9735576614918801e-06 -1.2476951937819519e-08 0.0000000000000000e+00  8.9812846913134966e-06 8.0716689194011868e-09 0.0000000000000000e+00  6.2376775929800538e-20 5.3646971001309187e-22 0.0000000000000000e+00  8.9805143950552008e-06 -2.7711873912108803e-09 0.0000000000000000e+00  6.7603258940283834e-20 3.7666797600095508e-22 0.0000000000000000e+00  8.9822477023776655e-06 -2.8538158525984190e-09 0.0000000000000000e+00  6.2883449773090142e-20 1.4590997201239942e-22 0.0000000000000000e+00  6.2586047391734847e-20 -6.8833226520322490e-24 0.0000000000000000e+00  6.3704120394660265e-20 3.8495101833436315e-22 0.0000000000000000e+00  8.9851474693812172e-06 2.7802351710767870e-09 0.0000000000000000e+00  6.2583734814922715e-20 2.0460106783388908e-22 0.0000000000000000e+00  6.4132147656240703e-20 1.8244751016653772e-22 0.0000000000000000e+00  8.9794817960465417e-06 6.9291180547536955e-10 0.0000000000000000e+00  8.9882308739157572e-06 1.4324904546012015e-09 0.0000000000000000e+00  6.4553849154175375e-20 1.4781636862710779e-23 0.0000000000000000e+00  8.9865117445388854e-06 6.1658481143046287e-09 0.0000000000000000e+00  6.8016731516984756e-20 7.2310305985929529e-22 0.0000000000000000e+00  8.9906667963033449e-06 -1.1413935764553446e-08 0.0000000000000000e+00  6.2214934669266058e-20 1.2914482966521863e-23 0.0000000000000000e+00  8.9717320350371638e-06 6.0552498176206772e-09 0.0000000000000000e+00  6.3853357623963259e-20 -1.4672186954035674e-24 0.0000000000000000e+00  5.9879604719540548e-20 5.6460972861403057e-22 0.0000000000000000e+00  6.3958512254239999e-20 1.1065994429575970e-21 0.0000000000000000e+00  6.9148741762088794e-20 -4.2087261065224826e-22 0.0000000000000000e+00  8.9870706784830303e-06 6.8067150693331245e-09 0.0000000000000000e+00  8.9891737562415182e-06 1.0627051663704784e-08 0.0000000000000000e+00  8.9865509997796010e-06 1.1103549416007199e-09 0.0000000000000000e+00  -1.8698522376442424e-06 -9.8721247548434353e-06 0.0000000000000000e+00  1.2246367058301868e-20 -1.3563997567462474e-19 0.0000000000000000e+00  9.0182010975465069e-06 -7.5833151069531803e-08 0.0000000000000000e+00  8.9992612692937396e-06 -2.4952403180515956e-08 0.0000000000000000e+00  8.8802938047809444e-06 2.2856721792412366e-08 0.0000000000000000e+00  8.9651369204736549e-06 -9.6291195202576662e-09 0.0000000000000000e+00  1.5091224200478469e-06 8.0352815658298017e-06 0.0000000000000000e+00  8.9729491997498786e-06 -1.5352551618926820e-11 0.0000000000000000e+00  8.9920243738550881e-06 1.2181720714035109e-13 0.0000000000000000e+00  2.6984435947925081e-20 7.6473639918393637e-20 0.0000000000000000e+00  -1.6510672731325210e-06 8.5442376365832288e-06 0.0000000000000000e+00  8.9717052797781126e-06 -6.1518717655817103e-09 0.0000000000000000e+00  1.5019313648864573e-06 -9.2455156413652441e-06 0.0000000000000000e+00  8.9871705983408287e-06 -1.4911539745349607e-09 0.0000000000000000e+00  6.1486097126496679e-20 -5.1098271072701155e-22 0.0000000000000000e+00  8.9697341767887742e-06 -2.7406319284786241e-08 0.0000000000000000e+00  8.9782942915932829e-06 8.8786059634659525e-11 0.0000000000000000e+00  8.9743727572898692e-06 4.1434109939537750e-08 0.0000000000000000e+00  8.9893828309560093e-06 -1.9992437158357228e-09 0.0000000000000000e+00  8.9855023366843456e-06 -1.0615535646337230e-08 0.0000000000000000e+00  8.9683418443178431e-06 -1.6517565425938892e-06 0.0000000000000000e+00  6.8459884683691307e-20 -9.1090242982185590e-22 0.0000000000000000e+00  8.9691557542085537e-06 -3.1922291939224398e-09 0.0000000000000000e+00  7.9307004506339325e-22 -8.2907305773600247e-20 0.0000000000000000e+00  6.5171669532298565e-22 7.4155512478420734e-20 0.0000000000000000e+00  -2.0455880411994929e-05 -2.2543085051164781e-05 0.0000000000000000e+00  -1.6654002339031719e-05 1.8537068393027036e-05 0.0000000000000000e+00  5.9180768010939147e-20 2.4381725102163039e-23 0.0000000000000000e+00  6.9313880224389902e-20 1.0261814996152713e-21 0.0000000000000000e+00  5.7515402469653907e-20 1.1894551913619115e-22 0.0000000000000000e+00  8.9695843459436370e-06 1.0932635337243157e-08 0.0000000000000000e+00  8.9733338979893512e-06 6.6008838704600279e-09 0.0000000000000000e+00  8.1629373672306182e-06 -2.1679044973868707e-21 0.0000000000000000e+00  5.6622808345477077e-20 -1.8611241200265904e-21 0.0000000000000000e+00  8.9731911133312510e-06 2.5395423010802809e-09 0.0000000000000000e+00  6.5094618242017674e-20 4.3032016074299193e-22 0.0000000000000000e+00  6.2398563801757215e-20 -1.2510773992332407e-22 0.0000000000000000e+00  8.9819990242562372e-06 -1.1415420526286081e-09 0.0000000000000000e+00  8.9917586507852044e-06 9.6034809671450738e-10 0.0000000000000000e+00  8.1536175074213068e-06 2.7736328318382623e-21 0.0000000000000000e+00  6.0159074099586351e-20 -7.8764793833380453e-22 0.0000000000000000e+00  3.3416024056196415e-06 -3.2290478084638813e-07 0.0000000000000000e+00  6.3779081265510797e-20 2.2019946979018174e-21 0.0000000000000000e+00  7.9422918633286554e-20 -3.0399884161692523e-21 0.0000000000000000e+00  8.9823897129606935e-06 -4.0255748708480907e-09 0.0000000000000000e+00  8.9513621609242302e-06 -1.0570641890576693e-08 0.0000000000000000e+00  8.9942135109638162e-06 6.1543159780466708e-11 0.0000000000000000e+00  8.9772440573051007e-06 5.6600308246795984e-09 0.0000000000000000e+00  6.6961837993429236e-20 6.9082039054017513e-23 0.0000000000000000e+00  7.1889261006509296e-20 1.6378031626288650e-22 0.0000000000000000e+00  6.3322607388414621e-20 -1.2247649134671935e-21 0.0000000000000000e+00  5.8460742175342838e-20 1.4604146915801548e-21 0.0000000000000000e+00  8.9755669075800782e-06 -1.4480802668700813e-09 0.0000000000000000e+00  8.9766781648313035e-06 3.4146588765076247e-09 0.0000000000000000e+00  8.9745770515954306e-06 -2.9695929888918548e-09 0.0000000000000000e+00  8.1406021361501041e-06 2.4298356788764754e-06 0.0000000000000000e+00  8.9870672382298634e-06 -2.5837606772174235e-09 0.0000000000000000e+00  8.9723963846982070e-06 2.9085466860109163e-09 0.0000000000000000e+00  8.9848614127691461e-06 2.6414328062053962e-09 0.0000000000000000e+00  8.9348758522980242e-06 1.0046844928010012e-08 0.0000000000000000e+00  8.9807740841326276e-06 6.4748505912770963e-10 0.0000000000000000e+00  8.9523606126458930e-06 2.4661555113043788e-09 0.0000000000000000e+00  8.9731535799780607e-06 1.6972572312358257e-09 0.0000000000000000e+00  8.9347987263357641e-06 6.5726426869971319e-10 0.0000000000000000e+00  8.9835800492740768e-06 -8.6218924729446426e-09 0.0000000000000000e+00  8.9567805039482988e-06 5.2633568129478161e-09 0.0000000000000000e+00  8.9485031050695707e-06 -3.3104597369811124e-09 0.0000000000000000e+00  8.9690978850978781e-06 3.6811004633285355e-09 0.0000000000000000e+00  8.9817662223240204e-06 1.1207849987368028e-08 0.0000000000000000e+00  8.9212314419890730e-06 -1.0386146491164933e-08 0.0000000000000000e+00  8.9204517289171789e-06 9.7139559515443116e-09 0.0000000000000000e+00  8.9350876879766257e-06 -1.3817184751647285e-09 0.0000000000000000e+00  8.9168314940808256e-06 -6.4366105623088246e-09 0.0000000000000000e+00  8.9394232886922717e-06 -5.4615944569689455e-09 0.0000000000000000e+00  8.9830243112537346e-06 -2.4460144750629473e-09 0.0000000000000000e+00  8.9881807211065750e-06 -1.6603330090796393e-09 0.0000000000000000e+00  8.9921248292634823e-06 2.1096116334866520e-09 0.0000000000000000e+00  8.9485265091811679e-06 -8.4778375397900669e-09 0.0000000000000000e+00  8.2353413869586344e-06 -5.0237050259311046e-07 0.0000000000000000e+00  9.1978956980913922e-06 -2.7226612029328192e-07 0.0000000000000000e+00  8.9298056007764247e-06 -8.6692165188490661e-08 0.0000000000000000e+00  8.9862654217371182e-06 -2.7410487587511901e-09 0.0000000000000000e+00  8.9910503234755087e-06 -6.0345094530947101e-09 0.0000000000000000e+00  8.9912824687394260e-06 -1.4241212754445064e-09 0.0000000000000000e+00  5.7257812638494018e-21 -2.3358154030008155e-20 0.0000000000000000e+00  8.2629607525873806e-21 1.8131052465084500e-20 0.0000000000000000e+00  8.9864815947051009e-06 4.3263462659273922e-09 0.0000000000000000e+00  8.9845231161077796e-06 -1.4151326983730599e-08 0.0000000000000000e+00  8.9926668826405638e-06 1.7471141121094027e-09 0.0000000000000000e+00  8.9231236096033515e-06 4.0167423105443519e-09 0.0000000000000000e+00  8.9405176753917071e-06 4.8077727731835791e-09 0.0000000000000000e+00  8.9896150168106416e-06 -1.2086272226223196e-07 0.0000000000000000e+00  8.8755575971168139e-06 -5.5787439634773483e-07 0.0000000000000000e+00  8.7570292990995567e-06 9.5902840086710446e-09 0.0000000000000000e+00  8.9281960097482932e-06 7.7898911599074828e-09 0.0000000000000000e+00  8.9303826607243532e-06 -7.7331339229573432e-10 0.0000000000000000e+00  8.5833058216052062e-06 3.9595401581045364e-09 0.0000000000000000e+00  8.9560313909574454e-06 1.1841565302438983e-07 0.0000000000000000e+00  8.9842957326396444e-06 -1.2502480275374647e-09 0.0000000000000000e+00  8.8959453293134727e-06 1.0558261530499210e-08 0.0000000000000000e+00  7.3782241792256444e-08 -1.0566920605156914e-05 0.0000000000000000e+00  8.9858315210604264e-06 5.5537322940721015e-09 0.0000000000000000e+00  1.0443691162639049e-07 9.1693880400281830e-06 0.0000000000000000e+00  -3.9166079760321492e-19 -3.9364899551677591e-19 0.0000000000000000e+00  -7.4885044658035779e-21 5.3327228771631536e-20 0.0000000000000000e+00  3.5787812109268432e-21 6.2644920905730842e-20 0.0000000000000000e+00  3.2632737387075944e-21 -6.1408297987108082e-20 0.0000000000000000e+00  -7.1705302107140010e-21 -6.6093582811798617e-20 0.0000000000000000e+00  -4.0308743222369022e-19 3.3882835378549204e-19 0.0000000000000000e+00  8.9559447994552290e-06 -6.2190063902660939e-09 0.0000000000000000e+00  8.6383887233080380e-06 -3.8776034953627959e-09 0.0000000000000000e+00  8.6388035547319662e-06 -2.0637351753766911e-08 0.0000000000000000e+00  8.6297626748624564e-06 3.0031961064198349e-09 0.0000000000000000e+00  8.6341805127383043e-06 -1.2011375342177065e-09 0.0000000000000000e+00  8.6268685331778799e-06 9.5387316654820119e-09 0.0000000000000000e+00  8.9095988784282994e-06 1.1804515243318944e-08 0.0000000000000000e+00  8.9481049274722756e-06 1.3024520229993223e-07 0.0000000000000000e+00  8.9124726453321339e-06 -1.5430759570101946e-09 0.0000000000000000e+00  8.9747085194018391e-06 -5.0352970226398205e-09 0.0000000000000000e+00  8.9878390902358960e-06 2.5271930593421691e-09 0.0000000000000000e+00  8.9907548421099066e-06 -1.9785173234067582e-09 0.0000000000000000e+00  -1.6086517813064017e-06 1.3256017033808835e-05 0.0000000000000000e+00  -3.2892241792348601e-06 -1.3793493204234358e-05 0.0000000000000000e+00  8.6548591432208914e-06 -2.9460932412869570e-08 0.0000000000000000e+00  8.8942484971182174e-06 1.1129978753687330e-08 0.0000000000000000e+00  8.9917544103349436e-06 -1.8055272399195860e-09 0.0000000000000000e+00  8.9898221033302879e-06 -2.0522556889838191e-09 0.0000000000000000e+00  6.3863839685664642e-20 7.4036689674164346e-22 0.0000000000000000e+00  7.9527970002223593e-06 5.8191734242593719e-07 0.0000000000000000e+00  3.6873813921536361e-05 4.3061703076170315e-05 0.0000000000000000e+00  3.7387344021231207e-05 -4.5891886695446449e-05 0.0000000000000000e+00  8.9950836431265126e-06 -1.4446511596388901e-09 0.0000000000000000e+00  8.5649929499616228e-06 8.6208142888437095e-09 0.0000000000000000e+00  6.1932728559799894e-20 1.7070758643870483e-22 0.0000000000000000e+00  8.6038093029013927e-06 -1.3861695575869314e-08 0.0000000000000000e+00  8.9951685373117797e-06 1.5867087838018587e-09 0.0000000000000000e+00  8.8724171826739814e-06 7.1402685008210412e-07 0.0000000000000000e+00  8.9797223374967592e-06 3.6722567789160949e-10 0.0000000000000000e+00  6.7661347308933437e-20 -6.1938695834009770e-22 0.0000000000000000e+00  8.9903974661337434e-06 3.6097995918839941e-09 0.0000000000000000e+00  8.9869477829512529e-06 -4.0074395814054193e-09 0.0000000000000000e+00  8.9129552367567230e-06 -3.0444548910764009e-09 0.0000000000000000e+00  8.9370734215763606e-06 1.7050600823646274e-09 0.0000000000000000e+00  8.9149243925350533e-06 -6.7411950504794917e-09 0.0000000000000000e+00  6.3813873451775627e-20 5.2616700105038520e-22 0.0000000000000000e+00  8.9423161086265879e-06 -2.6046558777458065e-09 0.0000000000000000e+00  8.9913318834373438e-06 7.1588684086543317e-09 0.0000000000000000e+00  8.6493243222468418e-06 2.0270855865287341e-08 0.0000000000000000e+00  8.9899117956060180e-06 -3.8839555497425015e-10 0.0000000000000000e+00  8.9909216270168724e-06 -4.4131704876140632e-08 0.0000000000000000e+00  8.9832047489192930e-06 1.2445182709645887e-09 0.0000000000000000e+00  8.9843534870640952e-06 -2.1095631673824190e-09 0.0000000000000000e+00  8.6712846479399239e-06 -1.3589313078689221e-07 0.0000000000000000e+00  8.9364219764344692e-06 5.4447892382721348e-09 0.0000000000000000e+00  8.9329070340208272e-06 -8.0027643440574211e-09 0.0000000000000000e+00  8.9239811537134670e-06 -5.7713845599579520e-09 0.0000000000000000e+00  8.9398378793527547e-06 -1.4419398556427743e-08 0.0000000000000000e+00  8.9826113488803462e-06 2.7880679442729783e-09 0.0000000000000000e+00  6.9244550410950192e-20 -7.7918097168666209e-22 0.0000000000000000e+00  8.3132585014364683e-06 -4.8039648918887297e-06 0.0000000000000000e+00  4.9091472013891750e-06 -9.0445202924321324e-06 0.0000000000000000e+00  2.0936457945453338e-06 -6.7974193862523677e-06 0.0000000000000000e+00  6.4263209366791725e-06 -2.2978986186828643e-06 0.0000000000000000e+00  8.9926690264683546e-06 4.6976265680133207e-10 0.0000000000000000e+00  8.9853030107399475e-06 -4.7417599924300045e-09 0.0000000000000000e+00  8.9841910589577620e-06 7.6393088879036809e-10 0.0000000000000000e+00  8.9839896845168495e-06 -1.7166496199893066e-09 0.0000000000000000e+00  8.9722715907430623e-06 -1.8926806152573959e-08 0.0000000000000000e+00  8.9313134491112759e-06 1.9894523791768326e-08 0.0000000000000000e+00  7.1736583624295985e-20 1.5833116480979003e-22 0.0000000000000000e+00  8.9249311452660011e-06 1.2453317805512381e-08 0.0000000000000000e+00  8.9842965084022620e-06 -2.6608299662546505e-09 0.0000000000000000e+00  8.9840341286089887e-06 4.7407266921484766e-11 0.0000000000000000e+00  8.9228467889927822e-06 8.0052815174050513e-09 0.0000000