<?xml version="1.0"?>
<VTKFile type="UnstructuredGrid"  version="0.1"  >
<UnstructuredGrid>
<Piece  NumberOfPoints="1079" NumberOfCells="1944">
<Points>
<DataArray  type="Float64"  NumberOfComponents="3"  format="ascii">0.08500000000000001 0.02 0  0.005 0.02 0  0.005 0.03 0  0 0.03 0  0 0 0  0.005 0 0  0.005 0.01 0  0.08500000000000001 0.01 0  0 0.015 0  0 0.0075 0  0 0.0225 0  0.04500000000000001 0.02 0  0.04500000000000001 0.01 0  0.025 0.01 0  0.025 0.02 0  0.065 0.02 0  0.065 0.01 0  0.035 0.02 0  0.035 0.01 0  0.07500000000000001 0.02 0  0.07500000000000001 0.01 0  0.015 0.02 0  0.015 0.01 0  0.05500000000000001 0.01 0  0.05500000000000001 0.02 0  0.07000000000000001 0.01 0  0.07000000000000001 0.02 0  0.05 0.01 0  0.03 0.01 0  0.03 0.02 0  0.04000000000000001 0.01 0  0.01 0.01 0  0.02 0.02 0  0.06 0.015 0  0.08500000000000001 0.015 0  0.05 0.02 0  0.07250000000000001 0.015 0  0.04000000000000001 0.02 0  0.03750000000000001 0.015 0  0.0525 0.015 0  0.02 0.01 0  0.01 0.02 0  0.0275 0.015 0  0.0125 0.015 0  0.08000000000000002 0.01 0  0.08000000000000002 0.02 0  0.0325 0.014375 0  0.04291666666666667 0.015 0  0.065 0.015 0  0.005 0.005 0  0.005 0.015 0  0.02208333333333334 0.015 0  0.07791666666666668 0.015 0  0.005 0.025 0  0.06 0.01 0  0.06 0.02 0  0.01729166666666667 0.01572916666666667 0  0.04770833333333334 0.01427083333333334 0  0.06875000000000001 0.01625 0  0.008750000000000001 0.01625 0  0.05625000000000001 0.01625 0  0 0.00375 0  0 0.01875 0  0 0.01125 0  0 0.02625 0  0.08145833333333334 0.01354166666666667 0  0.0675 0.01 0  0.0075 0.0125 0  0.0625 0.0175 0  0.0575 0.0125 0  0.0625 0.0125 0  0.08207465277777778 0.01707465277777778 0  0.06767857142857144 0.01321428571428571 0  0.0175 0.01 0  0.01875 0.01291382575757576 0  0.0475 0.02 0  0.04564168086314595 0.01679860519591141 0  0.00296875 0.0125 0  0.0025 0.03 0  0.0025 0 0  0.00296875 0.0175 0  0.01521990740740741 0.0132349537037037 0  0.0497800925925926 0.0167650462962963 0  0.0325 0.02 0  0.03474264705882353 0.01674632352941176 0  0.03750000000000001 0.02 0  0.03025735294117647 0.01674632352941176 0  0.0275 0.02 0  0.0525 0.02 0  0.0125 0.01 0  0.04020833333333334 0.01322916666666667 0  0.03750000000000001 0.01 0  0.0225 0.02 0  0.02479166666666667 0.01677083333333333 0  0.07520833333333335 0.01322916666666667 0  0.07250000000000001 0.01 0  0.07520833333333335 0.01677083333333334 0  0.07250000000000001 0.02 0  0.04020833333333334 0.01677083333333333 0  0.0225 0.01 0  0.02375 0.01262152777777778 0  0.04250000000000001 0.02 0  0.04250000000000001 0.01 0  0.07750000000000001 0.01 0  0.07750000000000001 0.02 0  0.05036151960784314 0.01294424019607843 0  0.0705560064935065 0.01284699675324675 0  0.05458333333333334 0.01291666666666666 0  0.0021875 0.024375 0  0.005 0.0275 0  0.01125 0.0175 0  0.01463848039215686 0.01705575980392157 0  0.01 0.01375 0  0.03625 0.0125 0  0.0021875 0.009375 0  0.05375000000000001 0.0175 0  0.07125000000000001 0.0175 0  0.005 0.0025 0  0.0021875 0.005625 0  0.02655220103578155 0.01234889948210923 0  0.002187499999999999 0.020625 0  0.02979166666666667 0.01302083333333333 0  0.0525 0.01 0  0.07895833333333334 0.0125 0  0.01994277885235332 0.01704213007736944 0  0.07934656179076068 0.01733823814273861 0  0.04505722114764669 0.01295786992263056 0  0.06625 0.0175 0  0.006250000000000001 0.0175 0  0.05750000000000001 0.02 0  0.05875000000000001 0.0175 0  0.005 0.0225 0  0.005 0.0075 0  0.002375 0.027375 0  0.002375 0.002625000000000001 0  0.0475 0.01 0  0.0175 0.02 0  0.0325 0.01 0  0.03375 0.0121875 0  0.04261299435028249 0.01749205508474576 0  0.08500000000000001 0.0125 0  0.08250000000000002 0.01 0  0.02121963399965531 0.01224824108143494 0  0.0675 0.02 0  0.0125 0.02 0  0.02720152243589744 0.0175 0  0.03715165441176471 0.0175 0  0.08500000000000001 0.0175 0  0.0275 0.01 0  0.0025 0.0149560546875 0  0.0075 0.01 0  0.0075 0.02 0  0.06526785714285716 0.0125 0  0.01281031447005516 0.0125 0  0.0625 0.015 0  0.06 0.0125 0  0.05750000000000001 0.01 0  0.0625 0.02 0  0.0625 0.01 0  0.08250000000000002 0.02 0  0.04260103740101855 0.01252623201412851 0  0.02240052247582197 0.01750164767101344 0  0.07293583459427785 0.01238479732953041 0  0.005234374999999999 0.012265625 0  0.03528131980640358 0.01454684009679821 0  0.0325 0.01760027210036557 0  0.02532593822924343 0.01428227733767297 0  0.08009952069819683 0.01527145502895417 0  0.01987282359856536 0.01482587683689801 0  0.04828232595121382 0.01210233572595705 0  0.01671767404878618 0.01789766427404295 0  0.05125 0.01829007549029352 0  0.05247215456215357 0.01288882122882024 0  0.07338729919678716 0.01799385040160642 0  0.03838729919678716 0.01200614959839357 0  0.07717482110586968 0.01780301674207099 0  0.04771860040890012 0.01773306039388322 0  0.03125 0.01160380747126437 0  0.06875000000000001 0.01154265873015873 0  0.07625000000000001 0.01154065860215054 0  0.01625 0.01153997817696946 0  0.068125 0.018125 0  0.05437500000000001 0.015625 0  0.066875 0.015625 0  0.07039794950204951 0.01494384850614853 0  0.05687500000000001 0.018125 0  0.006875 0.015625 0  0.008749999999999999 0.01833333333333333 0  0.010625 0.015625 0  0.05625 0.01416666666666667 0  0.05812500000000001 0.015625 0  0.0449088595298192 0.01494528408816316 0  0 0.016875 0  0 0.013125 0  0.04962452342047931 0.01478673066448802 0  0.0153754765795207 0.01521326933551198 0  0.0771774565913315 0.01322498191305479 0  0.01857756431135545 0.01840228599899994 0  0.04642243568864456 0.01159771400100006 0  0.08125000000000002 0.01155637254901961 0  0.08317650804863432 0.0118234919513657 0  0.08288217288011697 0.01511353252923977 0  0.02837253504384828 0.0117177464035174 0  0.03896057962520807 0.01831163685754031 0  0.01125 0.0114244162490927 0  0.00935910490099115 0.0119067901980177 0  0.02946078431372549 0.01495404411764706 0  0.02875 0.0185829434466942 0  0.002968749999999999 0.0225 0  0.064375 0.016875 0  0.00296875 0.0075 0  0 0.001875 0  0 0.005625 0  0 0.009375 0  0 0.020625 0  0 0.024375 0  0 0.028125 0  0.06062500000000001 0.01812500000000001 0  0.008303571428571429 0.01446428571428572 0  0.01375 0.01865917058160413 0  0.05137790313978056 0.01143372888932909 0  0.04125000000000001 0.01131513063942604 0  0.04101690263896279 0.01844430285842771 0  0.02399563533148224 0.01844349395710867 0  0.08125000000000002 0.01868815426145731 0  0.05354684380692146 0.01145463537600848 0  0.01699195823639423 0.01315138909884649 0  0.07598357371794873 0.015 0  0.04098357371794872 0.015 0  0.003744047619047619 0.00375 0  0.003344630281690141 0.02580853873239437 0  0.04625 0.0187354532243972 0  0.06388392857142858 0.01138392857142858 0  0.06375 0.01375 0  0.05875 0.01375 0  0.06375 0.02 0  0.00622802734375 0.01372802734375 0  0.003630681818181818 0.001369318181818182 0  0.003630681818181818 0.02863068181818182 0  0.06125 0.01625 0  0.06125 0.01125 0  0.05625000000000001 0.01 0  0.05875 0.01125 0  0.06125 0.01375 0  0.08337864763241221 0.0183786476324122 0  0.05213634138653413 0.01674432930673294 0  0.04375000000000001 0.01 0  0.07424178685897437 0.01529258578431373 0  0.03924178685897436 0.01529258578431372 0  0.03410139294454583 0.01843406022904556 0  0.03089860705545417 0.01843406022904556 0  0.02094160484316717 0.01850229584291991 0  0.04375000000000001 0.02 0  0.04437042160883325 0.01820701498672512 0  0.04816311705429156 0.01600061344661149 0  0.07151224904251052 0.0114127410511319 0  0.04395528506193162 0.01639387970349481 0  0.0128750358694518 0.0167500179347259 0  0.02855808448399799 0.01642839899839741 0  0.02812690373330794 0.01340955081400569 0  0.08358500641945087 0.01351822349116885 0  0.05590277777777778 0.01173611111111111 0  0.06683110430364615 0.01164926404662283 0  0.02573206694914602 0.01842532451809762 0  0.01438126661842046 0.01166701193099454 0  0.02384283211216029 0.01526549696571563 0  0.03625 0.02 0  0.004609375000000001 0.0182421875 0  0.003398437500000001 0.01943359375 0  0.001728307845744682 0.01894718251329787 0  0.004377805359085963 0.01656966216675735 0  0.04649673309852075 0.0153889662370871 0  0.03615513600614297 0.01592654988586041 0  0.03316985071935832 0.01598763605018279 0  0.03110111603888768 0.01529816275177977 0  0.01370614113484869 0.0138804542047638 0  0.04930041102671841 0.01842260568883502 0  0.07875000000000001 0.02 0  0.0745395359848485 0.01165101111925709 0  0.03860755698543604 0.01373741558556884 0  0.02605038706571737 0.01573944002207753 0  0.07559826163500957 0.01841729376139847 0  0.04437500000000001 0.01149157931286774 0  0.06874116707361365 0.01454618473032123 0  0.003761917372881356 0.0239307468220339 0  0.003984374999999999 0.01125 0  0.003768503289473684 0.01392539576480263 0  0.001796875 0.0111328125 0  0.003761917372881356 0.008930746822033899 0  0.005 0.00625 0  0.003761917372881355 0.0210692531779661 0  0.06633928571428571 0.01410714285714285 0  0.006484375 0.01125 0  0.08364120589325512 0.01657288979763549 0  0.03576267476503373 0.0184116442851204 0  0.07370875846579374 0.0137848203678562 0  0.06964285714285715 0.01758928571428571 0  0.05520833333333334 0.01833333333333333 0  0.06491071428571429 0.01839285714285714 0  0.0510098951944636 0.01559941474766356 0  0.01786087179886325 0.0115702210443714 0  0.01972197383235524 0.01160576093166696 0  0.01804697593127788 0.01433503795474974 0  0.001644074528704677 0.01642892723865279 0  0.00125 0.03 0  0.001497685185185185 0.001267746913580247 0  0.07315451164202422 0.01643443118912983 0  0.001233906745910645 0.0140625 0  0.01162635071030191 0.01362229857939618 0  0.01528023503083844 0.01845923557506155 0  0.06625 0.02 0  0.07695012019230771 0.01624387078484555 0  0.03139091092855769 0.01320776147621796 0  0.03857339107781042 0.01675295051810485 0  0.001754993120977522 0.02590789105493891 0  0.002288757784711197 0.00412546923654445 0  0.07914382119690884 0.01404430049871201 0  0.001391810103286306 0.01257390899021902 0  0.0419501201923077 0.01614675005432421 0  0.001484375 0.007018229166666667 0  0.001484375 0.02201822916666666 0  0.048
[...]
<PointData  Vectors="velocity"> 
<DataArray  type="Float64"  Name="velocity"  NumberOfComponents="3" format="ascii">2.9453744739684822e-07 2.2666542818194117e-21 0.0000000000000000e+00  6.6117475858973572e-21 -6.9921188514142955e-21 0.0000000000000000e+00  2.6754122937262061e-19 -1.4508287784959492e-05 0.0000000000000000e+00  -3.3087224502121213e-19 -1.4508287784959470e-05 0.0000000000000000e+00  -3.0243791146470204e-19 1.4508287784959477e-05 0.0000000000000000e+00  2.7917345673664809e-19 1.4508287784959463e-05 0.0000000000000000e+00  6.0582758933790069e-21 5.5355626600720917e-21 0.0000000000000000e+00  3.0249945894896358e-07 -2.2170455114766946e-21 0.0000000000000000e+00  6.5663630068419883e-22 -6.5308478223097903e-23 0.0000000000000000e+00  -7.4287819935384772e-23 5.5193035633279211e-21 0.0000000000000000e+00  3.0884737352136976e-23 -6.1637428380925391e-21 0.0000000000000000e+00  5.3924942854657185e-21 -1.8579435620393497e-23 0.0000000000000000e+00  4.8674468137189224e-21 3.0213518149626687e-23 0.0000000000000000e+00  5.9462776897055702e-21 1.6227534362959338e-23 0.0000000000000000e+00  4.8300092514317576e-21 -2.0430939112069940e-23 0.0000000000000000e+00  5.2828500540403358e-21 1.9866128060028081e-23 0.0000000000000000e+00  5.2749909405388410e-21 8.2601452412635336e-24 0.0000000000000000e+00  4.3994978906731003e-21 -9.7982761397072516e-24 0.0000000000000000e+00  5.9659323263783449e-21 -8.2150194167836371e-24 0.0000000000000000e+00  5.4005707095394815e-21 3.4056440291206563e-23 0.0000000000000000e+00  5.1069794826345978e-21 2.0133852850375116e-23 0.0000000000000000e+00  4.4368063082575426e-21 -1.3253327667129609e-23 0.0000000000000000e+00  4.2097518675719006e-21 -1.3057385500136008e-23 0.0000000000000000e+00  5.3777307061326547e-21 -5.9873644035319698e-23 0.0000000000000000e+00  5.1246615838986364e-21 2.2755214112665980e-23 0.0000000000000000e+00  5.0418244636334017e-21 8.2179018348341186e-24 0.0000000000000000e+00  6.1584793734251112e-21 -2.0622680109472319e-23 0.0000000000000000e+00  5.2809300622641898e-21 1.8010135372058250e-23 0.0000000000000000e+00  5.5887318404108271e-21 2.7977571409823617e-24 0.0000000000000000e+00  4.4109370170937120e-21 -1.2426323177817531e-23 0.0000000000000000e+00  5.1627713665214039e-21 1.7269253896419122e-23 0.0000000000000000e+00  5.3547247042786355e-21 2.8834587478901546e-23 0.0000000000000000e+00  4.6350274270935953e-21 -9.7998236833375842e-24 0.0000000000000000e+00  7.5156085639007055e-07 -1.0990385608138691e-10 0.0000000000000000e+00  7.2182309344495619e-07 1.8665412682709489e-24 0.0000000000000000e+00  4.6076432738478937e-21 2.9702723651456984e-24 0.0000000000000000e+00  7.5154703502220155e-07 2.5336601041047456e-10 0.0000000000000000e+00  5.3120540031439524e-21 -5.0385180731650705e-23 0.0000000000000000e+00  7.5092140191733054e-07 -3.6555028710419303e-10 0.0000000000000000e+00  7.5077801982144606e-07 -4.0876355064857921e-11 0.0000000000000000e+00  5.3225527210092644e-21 2.2220618049135356e-24 0.0000000000000000e+00  5.3906983138050702e-21 -1.0867562602812845e-22 0.0000000000000000e+00  7.5087486597818305e-07 -1.9796989945815647e-11 0.0000000000000000e+00  7.4930881545940247e-07 -2.9519810723766255e-09 0.0000000000000000e+00  4.6711149480004811e-21 -1.6155041816207195e-23 0.0000000000000000e+00  5.2074411677788036e-21 9.3787952729009939e-23 0.0000000000000000e+00  7.5070102524434940e-07 2.1959143202984391e-11 0.0000000000000000e+00  7.5146204235647231e-07 -7.3283266426635542e-11 0.0000000000000000e+00  7.5125946430641865e-07 -6.3216398277004671e-11 0.0000000000000000e+00  -3.8564306719286870e-22 6.5434920433370622e-21 0.0000000000000000e+00  5.6769964414711402e-07 -3.0002660989122544e-08 0.0000000000000000e+00  7.5058324695459328e-07 1.8185738566832767e-10 0.0000000000000000e+00  7.5038778491947469e-07 3.8629265330974223e-11 0.0000000000000000e+00  -5.8012486027949679e-22 -7.8189833288349527e-21 0.0000000000000000e+00  4.8871510800252575e-21 9.7818752247406360e-24 0.0000000000000000e+00  5.5069572481723339e-21 6.6953606943610825e-23 0.0000000000000000e+00  7.5093948652230981e-07 -2.7441714270414989e-10 0.0000000000000000e+00  7.5117661672397768e-07 1.9864642117458472e-10 0.0000000000000000e+00  7.5126506571735307e-07 -1.9169514102618784e-10 0.0000000000000000e+00  7.3976486434916246e-07 -2.4015779958546235e-08 0.0000000000000000e+00  7.5073080867968424e-07 -5.6472574775784926e-10 0.0000000000000000e+00  -3.3851991436223809e-21 9.6136510056433210e-22 0.0000000000000000e+00  3.0672965103069637e-22 -3.0905471544084158e-21 0.0000000000000000e+00  4.1397044058905558e-22 3.2397686654795652e-21 0.0000000000000000e+00  -3.8969910495961589e-21 1.0368141324613633e-21 0.0000000000000000e+00  7.4349095006915246e-07 -7.1815902879418858e-09 0.0000000000000000e+00  4.6176334948398060e-21 -1.3611730679595059e-23 0.0000000000000000e+00  7.4029747828151594e-07 4.2507420559700372e-08 0.0000000000000000e+00  7.4986547757708125e-07 2.0625123004409822e-11 0.0000000000000000e+00  7.5020091765003466e-07 6.3592526948032044e-11 0.0000000000000000e+00  7.5087315993658733e-07 -3.2200176030587367e-10 0.0000000000000000e+00  7.4268075139105748e-07 1.3732389861853830e-08 0.0000000000000000e+00  7.5079060046787376e-07 -1.5217593041572573e-10 0.0000000000000000e+00  5.0442869403129913e-21 -1.0664262237045550e-24 0.0000000000000000e+00  7.5018381623766017e-07 -1.6640136237635889e-11 0.0000000000000000e+00  6.2999247929758040e-21 8.8137959378631425e-23 0.0000000000000000e+00  7.5146088498212487e-07 -5.7260309642276441e-10 0.0000000000000000e+00  3.5905445471561937e-07 2.9242645908971794e-07 0.0000000000000000e+00  -1.6875118549887279e-20 -1.4508287784959543e-05 0.0000000000000000e+00  -2.5821259533006757e-20 1.4508287784959551e-05 0.0000000000000000e+00  3.7206771669981046e-07 -3.6636735664070711e-07 0.0000000000000000e+00  7.4988610436142081e-07 -1.0670620295935851e-09 0.0000000000000000e+00  7.5054876746605609e-07 6.7465100894992543e-10 0.0000000000000000e+00  5.2668727069875676e-21 4.3374997803649015e-23 0.0000000000000000e+00  7.5048420441571724e-07 -2.3148110918363223e-10 0.0000000000000000e+00  5.4426796377767513e-21 3.3799328434228074e-23 0.0000000000000000e+00  7.5062902242497929e-07 -2.3863325320788178e-10 0.0000000000000000e+00  6.0693922701825044e-21 1.2640525388008826e-23 0.0000000000000000e+00  5.1001042876362420e-21 -1.1239239447007470e-24 0.0000000000000000e+00  5.7150095213328458e-21 3.0709295921781778e-23 0.0000000000000000e+00  7.5087138779241918e-07 2.3230172019246942e-10 0.0000000000000000e+00  4.9758642189410570e-21 1.6962513396219118e-23 0.0000000000000000e+00  5.3728294610631420e-21 1.5114790606130701e-23 0.0000000000000000e+00  7.5039851595200188e-07 5.7006638197080411e-11 0.0000000000000000e+00  7.5112912111918608e-07 1.1960440588619003e-10 0.0000000000000000e+00  5.4014876388855289e-21 2.5066045809311404e-24 0.0000000000000000e+00  7.5098523662286653e-07 5.1530900302809506e-10 0.0000000000000000e+00  5.8570776225630696e-21 6.2021985646849463e-23 0.0000000000000000e+00  7.5133264887242823e-07 -9.5367098644514866e-10 0.0000000000000000e+00  4.8464532441638411e-21 1.7243769870071806e-24 0.0000000000000000e+00  7.4974870322306460e-07 5.0511941623133329e-10 0.0000000000000000e+00  5.3758892999586712e-21 -7.3360934770178371e-25 0.0000000000000000e+00  5.2489424479712931e-21 5.0429548159901737e-23 0.0000000000000000e+00  5.4320152429039060e-21 9.1542682250487252e-23 0.0000000000000000e+00  5.7236030130492709e-21 -3.5758054435080301e-23 0.0000000000000000e+00  7.5103228110639219e-07 5.6898200952917158e-10 0.0000000000000000e+00  7.5120776763297132e-07 8.8812842653492506e-10 0.0000000000000000e+00  7.5098872219241809e-07 9.2582247972974094e-11 0.0000000000000000e+00  -1.5869221460935464e-07 -8.2593250535359578e-07 0.0000000000000000e+00  1.0103662126810883e-21 -1.1640597564776242e-20 0.0000000000000000e+00  7.5371686531559162e-07 -6.4143656220351505e-09 0.0000000000000000e+00  7.5207316070359968e-07 -2.1125431827918859e-09 0.0000000000000000e+00  7.4203912597238122e-07 1.7607681017167998e-09 0.0000000000000000e+00  7.4919798593982070e-07 -8.0432027567209537e-10 0.0000000000000000e+00  1.2585675740702758e-07 6.7005082419519331e-07 0.0000000000000000e+00  7.4985241757726988e-07 -1.3645824240222905e-12 0.0000000000000000e+00  7.5144613965730349e-07 -8.7165025274715817e-13 0.0000000000000000e+00  2.0209301034861426e-21 6.3470025033484598e-21 0.0000000000000000e+00  -1.3976715006088555e-07 7.1213668763834300e-07 0.0000000000000000e+00  7.4974808654125251e-07 -5.1373416297392282e-10 0.0000000000000000e+00  1.2547343568853754e-07 -7.7401753387780003e-07 0.0000000000000000e+00  7.5104030912371138e-07 -1.2525669719528438e-10 0.0000000000000000e+00  4.9966464125197077e-21 -4.1250210806039259e-23 0.0000000000000000e+00  7.4958109061219232e-07 -2.2882774996678443e-09 0.0000000000000000e+00  7.5030230268472410e-07 2.8671705160935182e-12 0.0000000000000000e+00  7.4997111375419798e-07 3.4613921866251360e-09 0.0000000000000000e+00  7.5122532717740986e-07 -1.6726750474833393e-10 0.0000000000000000e+00  7.5090125551701015e-07 -8.8692323500187616e-10 0.0000000000000000e+00  7.4981221183772833e-07 -1.3849063492937190e-07 0.0000000000000000e+00  5.6579642446856561e-21 -7.2690512357345909e-23 0.0000000000000000e+00  7.4953595136078961e-07 -2.6803904594408933e-10 0.0000000000000000e+00  6.6611965352152920e-23 -6.8483373921175647e-21 0.0000000000000000e+00  5.7251148755768705e-23 6.2131120051310947e-21 0.0000000000000000e+00  -1.7357987894340730e-06 -1.8918175977074923e-06 0.0000000000000000e+00  -1.4100619706774042e-06 1.5521285844606380e-06 0.0000000000000000e+00  5.1436409697007657e-21 1.6367361758396485e-24 0.0000000000000000e+00  5.9520244436262498e-21 8.4794150169569415e-23 0.0000000000000000e+00  5.0059073237675376e-21 1.0535906383063241e-23 0.0000000000000000e+00  7.4957116943319426e-07 9.1384676177968916e-10 0.0000000000000000e+00  7.4988478348594511e-07 5.5092258982398884e-10 0.0000000000000000e+00  6.8216311978907414e-07 -1.7601425077035721e-22 0.0000000000000000e+00  5.2605649645291206e-21 -1.8780615451017789e-22 0.0000000000000000e+00  7.4986935691199945e-07 2.0999673607166864e-10 0.0000000000000000e+00  5.4847833710113542e-21 3.6931397973960570e-23 0.0000000000000000e+00  4.9352846369752668e-21 -1.0650335618472631e-23 0.0000000000000000e+00  7.5060886451825259e-07 -9.5911197885663982e-11 0.0000000000000000e+00  7.5142356418138475e-07 8.0620640835942752e-11 0.0000000000000000e+00  6.8138395621341491e-07 2.3857280992502666e-22 0.0000000000000000e+00  5.3051905947253719e-21 -6.5732001326005285e-23 0.0000000000000000e+00  2.7924429758149852e-07 -2.7926548889782072e-08 0.0000000000000000e+00  5.2738286699359233e-21 1.6951592153365468e-22 0.0000000000000000e+00  6.6249290221533568e-21 -2.5228520749124793e-22 0.0000000000000000e+00  7.5064100747347506e-07 -3.3613269705695320e-10 0.0000000000000000e+00  7.4800041612348946e-07 -9.2568102778781339e-10 0.0000000000000000e+00  7.5162904688601070e-07 5.1659490536872013e-12 0.0000000000000000e+00  7.5021058392257843e-07 4.7357609004697113e-10 0.0000000000000000e+00  5.4489880563471361e-21 5.7592132749663568e-24 0.0000000000000000e+00  6.0519020745275682e-21 1.6319826483822344e-23 0.0000000000000000e+00  5.2240257717798324e-21 -9.9301018955747064e-23 0.0000000000000000e+00  4.8584339505340896e-21 9.3024282360089880e-23 0.0000000000000000e+00  7.5007193027319169e-07 -1.2056175080625417e-10 0.0000000000000000e+00  7.5016563592226990e-07 2.8323743025820507e-10 0.0000000000000000e+00  7.4998872011235360e-07 -2.4758644540955739e-10 0.0000000000000000e+00  6.7983360910056566e-07 2.0240636989041642e-07 0.0000000000000000e+00  7.5103176177666770e-07 -2.1590551991416702e-10 0.0000000000000000e+00  7.4980520317174316e-07 2.4249979141237087e-10 0.0000000000000000e+00  7.5084718376558716e-07 2.1982601531925275e-10 0.0000000000000000e+00  7.4667183117165639e-07 8.3944092211028013e-10 0.0000000000000000e+00  7.5050571056850503e-07 4.7914552165088807e-11 0.0000000000000000e+00  7.4813097414711120e-07 2.0638339485808907e-10 0.0000000000000000e+00  7.4988341312991345e-07 1.3066392757519722e-10 0.0000000000000000e+00  7.4666332131669082e-07 5.4645800780261951e-11 0.0000000000000000e+00  7.5074027783255965e-07 -7.2056735396965972e-10 0.0000000000000000e+00  7.4850025221454728e-07 4.3885521988099966e-10 0.0000000000000000e+00  7.4780863537687539e-07 -2.7641355316708651e-10 0.0000000000000000e+00  7.4952957224968964e-07 3.0674188706225788e-10 0.0000000000000000e+00  7.5058849455980973e-07 9.3565485414420368e-10 0.0000000000000000e+00  7.4552955574686670e-07 -8.6796501822982687e-10 0.0000000000000000e+00  7.4546546688752492e-07 8.1213637201027224e-10 0.0000000000000000e+00  7.4668831851570178e-07 -1.1603391195693467e-10 0.0000000000000000e+00  7.4514350499687786e-07 -5.4595847585758537e-10 0.0000000000000000e+00  7.4704975500939589e-07 -4.5697717883877036e-10 0.0000000000000000e+00  7.5069389290414419e-07 -2.0433854013454695e-10 0.0000000000000000e+00  7.5112481191955591e-07 -1.3871042358271888e-10 0.0000000000000000e+00  7.5145442075805295e-07 1.7624407796172081e-10 0.0000000000000000e+00  7.4781199591184204e-07 -7.0826987981795994e-10 0.0000000000000000e+00  6.8827829346341942e-07 -4.2414825866374323e-08 0.0000000000000000e+00  7.6888031905329026e-07 -2.2878241058205569e-08 0.0000000000000000e+00  7.4627135980075131e-07 -7.3780764783595899e-09 0.0000000000000000e+00  7.5096472532842478e-07 -2.2902887693435629e-10 0.0000000000000000e+00  7.5136455899538292e-07 -5.0429643300858247e-10 0.0000000000000000e+00  7.5138403329636943e-07 -1.1905678361585743e-10 0.0000000000000000e+00  4.8346828552370774e-22 -1.9338731420948310e-21 0.0000000000000000e+00  7.2626662545927273e-22 1.5684365250227005e-21 0.0000000000000000e+00  7.5098292534842456e-07 3.6157258765901950e-10 0.0000000000000000e+00  7.5082110154661849e-07 -1.2099337604848558e-09 0.0000000000000000e+00  7.5150002049441207e-07 1.4630963182793090e-10 0.0000000000000000e+00  7.4569720751666706e-07 3.3187075037669003e-10 0.0000000000000000e+00  7.4714131992628238e-07 4.0255946280136748e-10 0.0000000000000000e+00  7.5124491776609206e-07 -1.0097272655624836e-08 0.0000000000000000e+00  7.4171945592695091e-07 -4.6616437363647287e-08 0.0000000000000000e+00  7.3181418322268106e-07 8.0109810424739219e-10 0.0000000000000000e+00  7.4611068406340523e-07 6.5105887954409041e-10 0.0000000000000000e+00  7.4629447185547555e-07 -6.4049830437147576e-11 0.0000000000000000e+00  7.1719249626075918e-07 2.9607175594449049e-10 0.0000000000000000e+00  7.4825858805359423e-07 9.7929458271087300e-09 0.0000000000000000e+00  7.5080018878393049e-07 -1.0475467790711205e-10 0.0000000000000000e+00  7.4341663953173558e-07 8.8189234370428955e-10 0.0000000000000000e+00  5.5890204449118006e-09 -8.8479603463621798e-07 0.0000000000000000e+00  7.5092875649214827e-07 4.6396731504498491e-10 0.0000000000000000e+00  8.2447236920414256e-09 7.6488631185184619e-07 0.0000000000000000e+00  -3.4068521090084231e-20 -3.3635796225883456e-20 0.0000000000000000e+00  -6.2404203881696477e-22 4.3966598189377067e-21 0.0000000000000000e+00  3.1300357346568075e-22 5.1523825968074770e-21 0.0000000000000000e+00  2.7353599179642918e-22 -5.1684465998578206e-21 0.0000000000000000e+00  -6.1702932066832439e-22 -5.5337787495727618e-21 0.0000000000000000e+00  -3.1881736744624503e-20 2.6665209393443166e-20 0.0000000000000000e+00  7.4843085040074410e-07 -5.1979945708917001e-10 0.0000000000000000e+00  7.2184031192548432e-07 -6.0084679874306480e-10 0.0000000000000000e+00  7.2197284709716432e-07 -1.7441406394362749e-09 0.0000000000000000e+00  7.2117183752562130e-07 2.5553321157836326e-10 0.0000000000000000e+00  7.2154136389396155e-07 -9.8655786408205498e-11 0.0000000000000000e+00  7.2093265248240752e-07 7.9269296887932048e-10 0.0000000000000000e+00  7.4456021592808207e-07 9.8583734388781766e-10 0.0000000000000000e+00  7.4777433535076188e-07 1.0882988968495263e-08 0.0000000000000000e+00  7.4479847421403498e-07 -1.3046552273165741e-10 0.0000000000000000e+00  7.4998979717852803e-07 -4.3417151566901193e-10 0.0000000000000000e+00  7.5109643301073485e-07 2.1124216125223036e-10 0.0000000000000000e+00  7.5133989572610416e-07 -1.6535008509399206e-10 0.0000000000000000e+00  -1.3720720567017720e-07 1.1112961845077818e-06 0.0000000000000000e+00  -2.8022875032610227e-07 -1.1584556696170540e-06 0.0000000000000000e+00  7.2327584982938838e-07 -2.4618234253900367e-09 0.0000000000000000e+00  7.4327593260715860e-07 9.2915676283929731e-10 0.0000000000000000e+00  7.5142354461940415e-07 -1.5087969010860542e-10 0.0000000000000000e+00  7.5126188676765921e-07 -1.7157389009893410e-10 0.0000000000000000e+00  5.0895362183354152e-21 6.1705167902214508e-23 0.0000000000000000e+00  6.6442022144791158e-07 4.8130988698808593e-08 0.0000000000000000e+00  3.0916046849602353e-06 3.6255396461212582e-06 0.0000000000000000e+00  3.1436283967435526e-06 -3.8699638423247077e-06 0.0000000000000000e+00  7.5170179456895477e-07 -1.2083609300014417e-10 0.0000000000000000e+00  7.1576631705561564e-07 7.2161661011344496e-10 0.0000000000000000e+00  5.1699669234688733e-21 1.3872915942224952e-23 0.0000000000000000e+00  7.1900310580908752e-07 -1.1556109649642196e-09 0.0000000000000000e+00  7.5170874060284879e-07 1.3263058291924566e-10 0.0000000000000000e+00  7.4144900868027854e-07 5.9671715857615610e-08 0.0000000000000000e+00  7.5041801997957474e-07 3.0759225133766308e-11 0.0000000000000000e+00  5.5620750489044929e-21 -5.3468896531948143e-23 0.0000000000000000e+00  7.5131016001652944e-07 3.0167690038525852e-10 0.0000000000000000e+00  7.5102177083402387e-07 -3.3491483213913714e-10 0.0000000000000000e+00  7.4483854232488150e-07 -2.5383896816869775e-10 0.0000000000000000e+00  7.4685400022767441e-07 1.4235895532008274e-10 0.0000000000000000e+00  7.4500702805807601e-07 -5.6561239690616833e-10 0.0000000000000000e+00  5.5574961526416287e-21 4.4288578533862999e-23 0.0000000000000000e+00  7.4729272078626774e-07 -2.1716231836286522e-10 0.0000000000000000e+00  7.5138825765243759e-07 5.9818683894082228e-10 0.0000000000000000e+00  7.2280665737961285e-07 1.6971209831977010e-09 0.0000000000000000e+00  7.5126946629032361e-07 -3.2506009252209704e-11 0.0000000000000000e+00  7.5138886426043337e-07 -3.7421143615945714e-09 0.0000000000000000e+00  7.5070914858101241e-07 1.0367412465100752e-10 0.0000000000000000e+00  7.5080487967207267e-07 -1.7653003785312443e-10 0.0000000000000000e+00  7.2464859801989629e-07 -1.1350386658189846e-08 0.0000000000000000e+00  7.4679884498906759e-07 4.5570462758169998e-10 0.0000000000000000e+00  7.4650625728906186e-07 -6.6793545517285520e-10 0.0000000000000000e+00  7.4575997785969979e-07 -4.8346204588919891e-10 0.0000000000000000e+00  7.4705298921962172e-07 -1.2226654518538760e-09 0.0000000000000000e+00  7.5065953633136007e-07 2.3139001432450560e-10 0.0000000000000000e+00  5.5698977483128362e-21 -6.5182860193701007e-23 0.0000000000000000e+00  6.9523673921470242e-07 -4.0230401801466422e-07 0.0000000000000000e+00  4.1061440370020082e-07 -7.5723395600238521e-07 0.0000000000000000e+00  1.7505921939522751e-07 -5.6925070579394337e-07 0.0000000000000000e+00  5.3722915888462736e-07 -1.9280944801975937e-07 0.0000000000000000e+00  7.5149991979234167e-07 3.9178324829696866e-11 0.0000000000000000e+00  7.5088431855497287e-07 -3.9624484233941770e-10 0.0000000000000000e+00  7.5079144702910169e-07 6.3780779651192343e-11 0.0000000000000000e+00  7.5077459964984913e-07 -1.4364346251035708e-10 0.0000000000000000e+00  7.4977743048847308e-07 -1.6262922732480295e-09 0.0000000000000000e+00  7.4637402135425296e-07 1.6630158682000138e-09 0.0000000000000000e+00  5.9311356976365792e-21 1.2487428176962607e-23 0.0000000000000000e+00  7.4583817172492393e-07 1.0413575421073828e-09 0.0000000000000000e+00  7.5080020546431231e-07 -2.2240323375148775e-10 0.0000000000000000e+00  7.5077851769747475e-07 3.2334280909451515e-12 0.0000000000000000e+00  7.4566488546711761e-07 6.6936559607718857e-10 0.000000