<?xml version="1.0"?>
<VTKFile type="UnstructuredGrid"  version="0.1"  >
<UnstructuredGrid>
<Piece  NumberOfPoints="1079" NumberOfCells="1944">
<Points>
<DataArray  type="Float64"  NumberOfComponents="3"  format="ascii">0.08500000000000001 0.02 0  0.005 0.02 0  0.005 0.03 0  0 0.03 0  0 0 0  0.005 0 0  0.005 0.01 0  0.08500000000000001 0.01 0  0 0.015 0  0 0.0075 0  0 0.0225 0  0.04500000000000001 0.02 0  0.04500000000000001 0.01 0  0.025 0.01 0  0.025 0.02 0  0.065 0.02 0  0.065 0.01 0  0.035 0.02 0  0.035 0.01 0  0.07500000000000001 0.02 0  0.07500000000000001 0.01 0  0.015 0.02 0  0.015 0.01 0  0.05500000000000001 0.01 0  0.05500000000000001 0.02 0  0.07000000000000001 0.01 0  0.07000000000000001 0.02 0  0.05 0.01 0  0.03 0.01 0  0.03 0.02 0  0.04000000000000001 0.01 0  0.01 0.01 0  0.02 0.02 0  0.06 0.015 0  0.08500000000000001 0.015 0  0.05 0.02 0  0.07250000000000001 0.015 0  0.04000000000000001 0.02 0  0.03750000000000001 0.015 0  0.0525 0.015 0  0.02 0.01 0  0.01 0.02 0  0.0275 0.015 0  0.0125 0.015 0  0.08000000000000002 0.01 0  0.08000000000000002 0.02 0  0.0325 0.014375 0  0.04291666666666667 0.015 0  0.065 0.015 0  0.005 0.005 0  0.005 0.015 0  0.02208333333333334 0.015 0  0.07791666666666668 0.015 0  0.005 0.025 0  0.06 0.01 0  0.06 0.02 0  0.01729166666666667 0.01572916666666667 0  0.04770833333333334 0.01427083333333334 0  0.06875000000000001 0.01625 0  0.008750000000000001 0.01625 0  0.05625000000000001 0.01625 0  0 0.00375 0  0 0.01875 0  0 0.01125 0  0 0.02625 0  0.08145833333333334 0.01354166666666667 0  0.0675 0.01 0  0.0075 0.0125 0  0.0625 0.0175 0  0.0575 0.0125 0  0.0625 0.0125 0  0.08207465277777778 0.01707465277777778 0  0.06767857142857144 0.01321428571428571 0  0.0175 0.01 0  0.01875 0.01291382575757576 0  0.0475 0.02 0  0.04564168086314595 0.01679860519591141 0  0.00296875 0.0125 0  0.0025 0.03 0  0.0025 0 0  0.00296875 0.0175 0  0.01521990740740741 0.0132349537037037 0  0.0497800925925926 0.0167650462962963 0  0.0325 0.02 0  0.03474264705882353 0.01674632352941176 0  0.03750000000000001 0.02 0  0.03025735294117647 0.01674632352941176 0  0.0275 0.02 0  0.0525 0.02 0  0.0125 0.01 0  0.04020833333333334 0.01322916666666667 0  0.03750000000000001 0.01 0  0.0225 0.02 0  0.02479166666666667 0.01677083333333333 0  0.07520833333333335 0.01322916666666667 0  0.07250000000000001 0.01 0  0.07520833333333335 0.01677083333333334 0  0.07250000000000001 0.02 0  0.04020833333333334 0.01677083333333333 0  0.0225 0.01 0  0.02375 0.01262152777777778 0  0.04250000000000001 0.02 0  0.04250000000000001 0.01 0  0.07750000000000001 0.01 0  0.07750000000000001 0.02 0  0.05036151960784314 0.01294424019607843 0  0.0705560064935065 0.01284699675324675 0  0.05458333333333334 0.01291666666666666 0  0.0021875 0.024375 0  0.005 0.0275 0  0.01125 0.0175 0  0.01463848039215686 0.01705575980392157 0  0.01 0.01375 0  0.03625 0.0125 0  0.0021875 0.009375 0  0.05375000000000001 0.0175 0  0.07125000000000001 0.0175 0  0.005 0.0025 0  0.0021875 0.005625 0  0.02655220103578155 0.01234889948210923 0  0.002187499999999999 0.020625 0  0.02979166666666667 0.01302083333333333 0  0.0525 0.01 0  0.07895833333333334 0.0125 0  0.01994277885235332 0.01704213007736944 0  0.07934656179076068 0.01733823814273861 0  0.04505722114764669 0.01295786992263056 0  0.06625 0.0175 0  0.006250000000000001 0.0175 0  0.05750000000000001 0.02 0  0.05875000000000001 0.0175 0  0.005 0.0225 0  0.005 0.0075 0  0.002375 0.027375 0  0.002375 0.002625000000000001 0  0.0475 0.01 0  0.0175 0.02 0  0.0325 0.01 0  0.03375 0.0121875 0  0.04261299435028249 0.01749205508474576 0  0.08500000000000001 0.0125 0  0.08250000000000002 0.01 0  0.02121963399965531 0.01224824108143494 0  0.0675 0.02 0  0.0125 0.02 0  0.02720152243589744 0.0175 0  0.03715165441176471 0.0175 0  0.08500000000000001 0.0175 0  0.0275 0.01 0  0.0025 0.0149560546875 0  0.0075 0.01 0  0.0075 0.02 0  0.06526785714285716 0.0125 0  0.01281031447005516 0.0125 0  0.0625 0.015 0  0.06 0.0125 0  0.05750000000000001 0.01 0  0.0625 0.02 0  0.0625 0.01 0  0.08250000000000002 0.02 0  0.04260103740101855 0.01252623201412851 0  0.02240052247582197 0.01750164767101344 0  0.07293583459427785 0.01238479732953041 0  0.005234374999999999 0.012265625 0  0.03528131980640358 0.01454684009679821 0  0.0325 0.01760027210036557 0  0.02532593822924343 0.01428227733767297 0  0.08009952069819683 0.01527145502895417 0  0.01987282359856536 0.01482587683689801 0  0.04828232595121382 0.01210233572595705 0  0.01671767404878618 0.01789766427404295 0  0.05125 0.01829007549029352 0  0.05247215456215357 0.01288882122882024 0  0.07338729919678716 0.01799385040160642 0  0.03838729919678716 0.01200614959839357 0  0.07717482110586968 0.01780301674207099 0  0.04771860040890012 0.01773306039388322 0  0.03125 0.01160380747126437 0  0.06875000000000001 0.01154265873015873 0  0.07625000000000001 0.01154065860215054 0  0.01625 0.01153997817696946 0  0.068125 0.018125 0  0.05437500000000001 0.015625 0  0.066875 0.015625 0  0.07039794950204951 0.01494384850614853 0  0.05687500000000001 0.018125 0  0.006875 0.015625 0  0.008749999999999999 0.01833333333333333 0  0.010625 0.015625 0  0.05625 0.01416666666666667 0  0.05812500000000001 0.015625 0  0.0449088595298192 0.01494528408816316 0  0 0.016875 0  0 0.013125 0  0.04962452342047931 0.01478673066448802 0  0.0153754765795207 0.01521326933551198 0  0.0771774565913315 0.01322498191305479 0  0.01857756431135545 0.01840228599899994 0  0.04642243568864456 0.01159771400100006 0  0.08125000000000002 0.01155637254901961 0  0.08317650804863432 0.0118234919513657 0  0.08288217288011697 0.01511353252923977 0  0.02837253504384828 0.0117177464035174 0  0.03896057962520807 0.01831163685754031 0  0.01125 0.0114244162490927 0  0.00935910490099115 0.0119067901980177 0  0.02946078431372549 0.01495404411764706 0  0.02875 0.0185829434466942 0  0.002968749999999999 0.0225 0  0.064375 0.016875 0  0.00296875 0.0075 0  0 0.001875 0  0 0.005625 0  0 0.009375 0  0 0.020625 0  0 0.024375 0  0 0.028125 0  0.06062500000000001 0.01812500000000001 0  0.008303571428571429 0.01446428571428572 0  0.01375 0.01865917058160413 0  0.05137790313978056 0.01143372888932909 0  0.04125000000000001 0.01131513063942604 0  0.04101690263896279 0.01844430285842771 0  0.02399563533148224 0.01844349395710867 0  0.08125000000000002 0.01868815426145731 0  0.05354684380692146 0.01145463537600848 0  0.01699195823639423 0.01315138909884649 0  0.07598357371794873 0.015 0  0.04098357371794872 0.015 0  0.003744047619047619 0.00375 0  0.003344630281690141 0.02580853873239437 0  0.04625 0.0187354532243972 0  0.06388392857142858 0.01138392857142858 0  0.06375 0.01375 0  0.05875 0.01375 0  0.06375 0.02 0  0.00622802734375 0.01372802734375 0  0.003630681818181818 0.001369318181818182 0  0.003630681818181818 0.02863068181818182 0  0.06125 0.01625 0  0.06125 0.01125 0  0.05625000000000001 0.01 0  0.05875 0.01125 0  0.06125 0.01375 0  0.08337864763241221 0.0183786476324122 0  0.05213634138653413 0.01674432930673294 0  0.04375000000000001 0.01 0  0.07424178685897437 0.01529258578431373 0  0.03924178685897436 0.01529258578431372 0  0.03410139294454583 0.01843406022904556 0  0.03089860705545417 0.01843406022904556 0  0.02094160484316717 0.01850229584291991 0  0.04375000000000001 0.02 0  0.04437042160883325 0.01820701498672512 0  0.04816311705429156 0.01600061344661149 0  0.07151224904251052 0.0114127410511319 0  0.04395528506193162 0.01639387970349481 0  0.0128750358694518 0.0167500179347259 0  0.02855808448399799 0.01642839899839741 0  0.02812690373330794 0.01340955081400569 0  0.08358500641945087 0.01351822349116885 0  0.05590277777777778 0.01173611111111111 0  0.06683110430364615 0.01164926404662283 0  0.02573206694914602 0.01842532451809762 0  0.01438126661842046 0.01166701193099454 0  0.02384283211216029 0.01526549696571563 0  0.03625 0.02 0  0.004609375000000001 0.0182421875 0  0.003398437500000001 0.01943359375 0  0.001728307845744682 0.01894718251329787 0  0.004377805359085963 0.01656966216675735 0  0.04649673309852075 0.0153889662370871 0  0.03615513600614297 0.01592654988586041 0  0.03316985071935832 0.01598763605018279 0  0.03110111603888768 0.01529816275177977 0  0.01370614113484869 0.0138804542047638 0  0.04930041102671841 0.01842260568883502 0  0.07875000000000001 0.02 0  0.0745395359848485 0.01165101111925709 0  0.03860755698543604 0.01373741558556884 0  0.02605038706571737 0.01573944002207753 0  0.07559826163500957 0.01841729376139847 0  0.04437500000000001 0.01149157931286774 0  0.06874116707361365 0.01454618473032123 0  0.003761917372881356 0.0239307468220339 0  0.003984374999999999 0.01125 0  0.003768503289473684 0.01392539576480263 0  0.001796875 0.0111328125 0  0.003761917372881356 0.008930746822033899 0  0.005 0.00625 0  0.003761917372881355 0.0210692531779661 0  0.06633928571428571 0.01410714285714285 0  0.006484375 0.01125 0  0.08364120589325512 0.01657288979763549 0  0.03576267476503373 0.0184116442851204 0  0.07370875846579374 0.0137848203678562 0  0.06964285714285715 0.01758928571428571 0  0.05520833333333334 0.01833333333333333 0  0.06491071428571429 0.01839285714285714 0  0.0510098951944636 0.01559941474766356 0  0.01786087179886325 0.0115702210443714 0  0.01972197383235524 0.01160576093166696 0  0.01804697593127788 0.01433503795474974 0  0.001644074528704677 0.01642892723865279 0  0.00125 0.03 0  0.001497685185185185 0.001267746913580247 0  0.07315451164202422 0.01643443118912983 0  0.001233906745910645 0.0140625 0  0.01162635071030191 0.01362229857939618 0  0.01528023503083844 0.01845923557506155 0  0.06625 0.02 0  0.07695012019230771 0.01624387078484555 0  0.03139091092855769 0.01320776147621796 0  0.03857339107781042 0.01675295051810485 0  0.001754993120977522 0.02590789105493891 0  0.002288757784711197 0.00412546923654445 0  0.07914382119690884 0.01404430049871201 0  0.001391810103286306 0.01257390899021902 0  0.0419501201923077 0.01614675005432421 0  0.001484375 0.007018229166666667 0  0.001484375 0.02201822916666666 0  0.048
[...]
<PointData  Vectors="velocity"> 
<DataArray  type="Float64"  Name="velocity"  NumberOfComponents="3" format="ascii">4.0815272502126269e-07 2.9813650914021091e-21 0.0000000000000000e+00  8.2451065495877364e-21 -9.7330294411686994e-21 0.0000000000000000e+00  3.7029257108819231e-19 -2.0092330025650590e-05 0.0000000000000000e+00  -4.1876018510497161e-19 -2.0092330025650552e-05 0.0000000000000000e+00  -4.1876018510497204e-19 2.0092330025650559e-05 0.0000000000000000e+00  3.7998609389154877e-19 2.0092330025650542e-05 0.0000000000000000e+00  8.2321361405019473e-21 7.7945214050816906e-21 0.0000000000000000e+00  4.1918566420367180e-07 -3.0393299969539662e-21 0.0000000000000000e+00  9.0287491344077349e-22 -6.9451916418521031e-23 0.0000000000000000e+00  -1.0644224945965579e-22 7.4601688106868371e-21 0.0000000000000000e+00  3.2832087324879885e-23 -8.4123079498753921e-21 0.0000000000000000e+00  7.9393825027282100e-21 -2.8227449729132893e-23 0.0000000000000000e+00  6.4990536316535890e-21 3.8376836871858552e-23 0.0000000000000000e+00  7.9283702529407608e-21 2.3333709541510157e-23 0.0000000000000000e+00  6.7171665229738427e-21 -2.7712213355390067e-23 0.0000000000000000e+00  7.1489314164127925e-21 2.1662806308351034e-23 0.0000000000000000e+00  7.4185777666710327e-21 1.0489975446370508e-23 0.0000000000000000e+00  6.0289979750648344e-21 -1.2299470789990623e-23 0.0000000000000000e+00  8.6346592288637954e-21 -9.6747998323437283e-24 0.0000000000000000e+00  7.5895229494489205e-21 4.6959885854935618e-23 0.0000000000000000e+00  6.9511665180304249e-21 2.8630708181726083e-23 0.0000000000000000e+00  6.6697088294067630e-21 -1.7784379861020073e-23 0.0000000000000000e+00  6.4242377048072388e-21 -1.2969910538306358e-23 0.0000000000000000e+00  7.4571199125039480e-21 -8.4635363058186362e-23 0.0000000000000000e+00  7.0133829446756863e-21 3.1639473352882159e-23 0.0000000000000000e+00  6.8917025042470952e-21 1.1193349050894748e-23 0.0000000000000000e+00  8.1450856229170820e-21 -2.7548641350376947e-23 0.0000000000000000e+00  7.5235965841958901e-21 2.6093221482033764e-23 0.0000000000000000e+00  7.7808169506302200e-21 3.2216597381009016e-24 0.0000000000000000e+00  6.3486634639033978e-21 -1.6627519459048280e-23 0.0000000000000000e+00  7.1223467749016834e-21 2.4448495042973101e-23 0.0000000000000000e+00  7.5329178043241824e-21 4.0652041363697264e-23 0.0000000000000000e+00  6.6461440303311894e-21 -1.5053171788995602e-23 0.0000000000000000e+00  1.0414524148864459e-06 -1.5229225577951628e-10 0.0000000000000000e+00  1.0002435568014153e-06 2.3798609176618031e-24 0.0000000000000000e+00  6.2382568815162016e-21 3.6724258112579556e-24 0.0000000000000000e+00  1.0414332596578506e-06 3.5109432888690682e-10 0.0000000000000000e+00  7.6085635376523180e-21 -7.0275576310584495e-23 0.0000000000000000e+00  1.0405663104284227e-06 -5.0654901973628888e-10 0.0000000000000000e+00  1.0403676209573949e-06 -5.6645219537833092e-11 0.0000000000000000e+00  6.8838348525053151e-21 2.9865723479295961e-24 0.0000000000000000e+00  7.3115218509080261e-21 -1.4473947520004633e-22 0.0000000000000000e+00  1.0405018226769473e-06 -2.7410027226082111e-11 0.0000000000000000e+00  1.0383317153135064e-06 -4.0869982189674714e-09 0.0000000000000000e+00  6.4620167264828789e-21 -2.4304683446704576e-23 0.0000000000000000e+00  7.3213866784743511e-21 1.2931772333340940e-22 0.0000000000000000e+00  1.0402609312256681e-06 3.0434239101684689e-11 0.0000000000000000e+00  1.0413154880342923e-06 -1.0154891570975263e-10 0.0000000000000000e+00  1.0410347644287939e-06 -8.7600561458638221e-11 0.0000000000000000e+00  -5.2248415555162859e-22 8.9568712380279183e-21 0.0000000000000000e+00  7.8667287421424331e-07 -4.1541728400076341e-08 0.0000000000000000e+00  1.0400977210468925e-06 2.5215344721047345e-10 0.0000000000000000e+00  1.0398268378351586e-06 5.3529449343991782e-11 0.0000000000000000e+00  -7.9950841186705683e-22 -1.0863016787321803e-20 0.0000000000000000e+00  6.7046866056544852e-21 1.3883951931889934e-23 0.0000000000000000e+00  7.7683481471582565e-21 9.4149741813404969e-23 0.0000000000000000e+00  1.0405911656146495e-06 -3.7956014074328721e-10 0.0000000000000000e+00  1.0409199618541600e-06 2.7526857498728301e-10 0.0000000000000000e+00  1.0410425314970401e-06 -2.6563288792633125e-10 0.0000000000000000e+00  1.0251018971334646e-06 -3.3267814650750092e-08 0.0000000000000000e+00  1.0403022071885894e-06 -7.8255654391978603e-10 0.0000000000000000e+00  -4.9321314774536228e-21 1.3651846488739704e-21 0.0000000000000000e+00  4.1314606057195833e-22 -4.0921133618555877e-21 0.0000000000000000e+00  6.0295694607536358e-22 4.4816799872467321e-21 0.0000000000000000e+00  -5.3985839310919266e-21 1.3585840356390279e-21 0.0000000000000000e+00  1.0302696736443686e-06 -9.9517679642962899e-09 0.0000000000000000e+00  6.4646868927757285e-21 -1.7803809698709612e-23 0.0000000000000000e+00  1.0258579172971037e-06 5.8916656025487202e-08 0.0000000000000000e+00  1.0391031077906247e-06 2.8619820487821155e-11 0.0000000000000000e+00  1.0395679394467415e-06 8.8105677158771941e-11 0.0000000000000000e+00  1.0404994671658680e-06 -4.4622617184945029e-10 0.0000000000000000e+00  1.0291469444513382e-06 1.9029390687758159e-08 0.0000000000000000e+00  1.0403850519038751e-06 -2.1087100034799095e-10 0.0000000000000000e+00  6.8521956334284480e-21 -1.5568196195310103e-24 0.0000000000000000e+00  1.0395445041424610e-06 -2.2718646213481174e-11 0.0000000000000000e+00  8.6555488460015397e-21 1.1927379692543780e-22 0.0000000000000000e+00  1.0413138862355737e-06 -7.9345859074298427e-10 0.0000000000000000e+00  4.9756060091407192e-07 4.0527232755130140e-07 0.0000000000000000e+00  -2.0481579418879217e-20 -2.0092330025650658e-05 0.0000000000000000e+00  -3.6483489003420529e-20 2.0092330025650668e-05 0.0000000000000000e+00  5.1557128555941487e-07 -5.0763192327328183e-07 0.0000000000000000e+00  1.0391325093201391e-06 -1.4774336104271663e-09 0.0000000000000000e+00  1.0400499311867665e-06 9.3487122842243443e-10 0.0000000000000000e+00  6.8136885261732587e-21 6.1133801830673302e-23 0.0000000000000000e+00  1.0399604741990620e-06 -3.2077276516018196e-10 0.0000000000000000e+00  7.5428632519405032e-21 4.6011089607098129e-23 0.0000000000000000e+00  1.0401611527385034e-06 -3.3067145012941629e-10 0.0000000000000000e+00  8.5359485659267389e-21 1.6206841628302844e-23 0.0000000000000000e+00  6.9386074732667445e-21 -1.0247373382209168e-24 0.0000000000000000e+00  7.8900564986227223e-21 4.1594551231578988e-23 0.0000000000000000e+00  1.0404970014076431e-06 3.2190680729261706e-10 0.0000000000000000e+00  7.0114431142502735e-21 2.5169843841278942e-23 0.0000000000000000e+00  7.2248293938788482e-21 2.1321964473963431e-23 0.0000000000000000e+00  1.0398417039127804e-06 7.9040063193664149e-11 0.0000000000000000e+00  1.0408541445772014e-06 1.6574330896459616e-10 0.0000000000000000e+00  7.3571729771020465e-21 2.3163963434662351e-24 0.0000000000000000e+00  1.0406547717744553e-06 7.1407166152882142e-10 0.0000000000000000e+00  7.5874946840698348e-21 8.4655575864110325e-23 0.0000000000000000e+00  1.0411361787458269e-06 -1.3215285850504273e-09 0.0000000000000000e+00  6.6309999813559531e-21 2.1279545797109889e-24 0.0000000000000000e+00  1.0389413541641806e-06 6.9999921869414227e-10 0.0000000000000000e+00  7.7234392126043794e-21 -1.6506210323290134e-24 0.0000000000000000e+00  7.1520960468317102e-21 6.8972782801982561e-23 0.0000000000000000e+00  7.4304175144498182e-21 1.2928830907895074e-22 0.0000000000000000e+00  7.8289579106404080e-21 -5.0832021907135246e-23 0.0000000000000000e+00  1.0407199458694957e-06 7.8844167279628283e-10 0.0000000000000000e+00  1.0409631337979053e-06 1.2306944762765980e-09 0.0000000000000000e+00  1.0406595918050710e-06 1.2830315367732531e-10 0.0000000000000000e+00  -2.1978102666347912e-07 -1.1444641323043535e-06 0.0000000000000000e+00  1.3384231377221627e-21 -1.5802397706782036e-20 0.0000000000000000e+00  1.0444358860831378e-06 -8.8846706007035592e-09 0.0000000000000000e+00  1.0421612098705516e-06 -2.9260310727465462e-09 0.0000000000000000e+00  1.0282614428771527e-06 2.4473710128289823e-09 0.0000000000000000e+00  1.0381781926476155e-06 -1.1145800192851145e-09 0.0000000000000000e+00  1.7441499581371930e-07 9.2857424053525477e-07 0.0000000000000000e+00  1.0390849744228230e-06 -1.8869611510969967e-12 0.0000000000000000e+00  1.0412934431168221e-06 -1.1648803531279201e-12 0.0000000000000000e+00  2.9787856642048886e-21 8.9786864681514795e-21 0.0000000000000000e+00  -1.9358861744560552e-07 9.8691575718797664e-07 0.0000000000000000e+00  1.0389404198721207e-06 -7.1190871742928681e-10 0.0000000000000000e+00  1.7387301118792879e-07 -1.0725019631449182e-06 0.0000000000000000e+00  1.0407310863090067e-06 -1.7353905594916241e-10 0.0000000000000000e+00  6.8373803241709679e-21 -5.7759751243115676e-23 0.0000000000000000e+00  1.0387091208162617e-06 -3.1710086031170372e-09 0.0000000000000000e+00  1.0397082286851874e-06 4.2000029258615910e-12 0.0000000000000000e+00  1.0392494670841283e-06 4.7965754259993316e-09 0.0000000000000000e+00  1.0409874621386238e-06 -2.3177632849698461e-10 0.0000000000000000e+00  1.0405383793382171e-06 -1.2290362729278364e-09 0.0000000000000000e+00  1.0390120678018975e-06 -1.9188640930900038e-07 0.0000000000000000e+00  7.5633533769496977e-21 -1.0578955925448348e-22 0.0000000000000000e+00  1.0386464144861602e-06 -3.7136496303673121e-10 0.0000000000000000e+00  9.3452059787693881e-23 -9.3331323750982737e-21 0.0000000000000000e+00  6.7040996522535028e-23 8.3889400267471494e-21 0.0000000000000000e+00  -2.4040081788689571e-06 -2.6211376750013639e-06 0.0000000000000000e+00  -1.9530341077876241e-06 2.1506670665980999e-06 0.0000000000000000e+00  7.1375242669443205e-21 2.0318104251802535e-24 0.0000000000000000e+00  7.7258156617060030e-21 1.1384066834905606e-22 0.0000000000000000e+00  6.7106108376418502e-21 1.0149554676373129e-23 0.0000000000000000e+00  1.0386952461213688e-06 1.2663240887312175e-09 0.0000000000000000e+00  1.0391298139284055e-06 7.6345819806037501e-10 0.0000000000000000e+00  9.4528651673760315e-07 -2.6017752646593947e-22 0.0000000000000000e+00  7.1416154669971096e-21 -2.7348959900819008e-22 0.0000000000000000e+00  1.0391086105912557e-06 2.9110779724565804e-10 0.0000000000000000e+00  7.9865379361775100e-21 4.9716493388354926e-23 0.0000000000000000e+00  6.9715209557272998e-21 -1.5638467490415509e-23 0.0000000000000000e+00  1.0401331888379209e-06 -1.3288053345659295e-10 0.0000000000000000e+00  1.0412621778606160e-06 1.1169975610630311e-10 0.0000000000000000e+00  9.4420683034340759e-07 3.3155920887874016e-22 0.0000000000000000e+00  7.2018546725324695e-21 -9.3127322265325482e-23 0.0000000000000000e+00  3.8695457206024021e-07 -3.8651430584971248e-08 0.0000000000000000e+00  7.4518514193380313e-21 2.4057562601493414e-22 0.0000000000000000e+00  9.0038582683529222e-21 -3.5064069286211067e-22 0.0000000000000000e+00  1.0401777550608042e-06 -4.6579907415071205e-10 0.0000000000000000e+00  1.0365210128847735e-06 -1.2806252447608873e-09 0.0000000000000000e+00  1.0415469029166904e-06 7.1574381317172991e-12 0.0000000000000000e+00  1.0395813288387098e-06 6.5621535396701067e-10 0.0000000000000000e+00  7.6697004666172415e-21 6.5866756631399944e-24 0.0000000000000000e+00  8.2984414809809837e-21 2.5162530820049813e-23 0.0000000000000000e+00  7.1202198206216778e-21 -1.3781048106000533e-22 0.0000000000000000e+00  6.6108800555914182e-21 1.5462545193997983e-22 0.0000000000000000e+00  1.0393891206172713e-06 -1.6708670836327805e-10 0.0000000000000000e+00  1.0395189272654357e-06 3.9259278886613008e-10 0.0000000000000000e+00  1.0392738385224185e-06 -3.4311339658854758e-10 0.0000000000000000e+00  9.4208151530869302e-07 2.8051081189223888e-07 0.0000000000000000e+00  1.0407192375367047e-06 -2.9918511486798170e-10 0.0000000000000000e+00  1.0390195980030740e-06 3.3606412152789976e-10 0.0000000000000000e+00  1.0404634762612193e-06 3.0466271098726915e-10 0.0000000000000000e+00  1.0346775192484243e-06 1.1632370488119690e-09 0.0000000000000000e+00  1.0399902854494410e-06 6.6704712530055507e-11 0.0000000000000000e+00  1.0366995805962336e-06 2.8597524365861615e-10 0.0000000000000000e+00  1.0391272314098269e-06 1.8161936033398721e-10 0.0000000000000000e+00  1.0346658276355647e-06 7.5737418171789345e-11 0.0000000000000000e+00  1.0403153258260640e-06 -9.9850156172368696e-10 0.0000000000000000e+00  1.0372113005473181e-06 6.0817858522528261e-10 0.0000000000000000e+00  1.0362529082957409e-06 -3.8304306787854966e-10 0.0000000000000000e+00  1.0386376500740251e-06 4.2510111149426031e-10 0.0000000000000000e+00  1.0401050068458826e-06 1.2966019606932720e-09 0.0000000000000000e+00  1.0330947456207962e-06 -1.2027551225224280e-09 0.0000000000000000e+00  1.0330058841557245e-06 1.1253755348316410e-09 0.0000000000000000e+00  1.0347004253664870e-06 -1.6076280164256267e-10 0.0000000000000000e+00  1.0325607023657870e-06 -7.5614304273138454e-10 0.0000000000000000e+00  1.0352013179836804e-06 -6.3321472463292153e-10 0.0000000000000000e+00  1.0402510465545147e-06 -2.8315928606858133e-10 0.0000000000000000e+00  1.0408481789867545e-06 -1.9221568339599951e-10 0.0000000000000000e+00  1.0413049239676477e-06 2.4422736462159438e-10 0.0000000000000000e+00  1.0362574966572856e-06 -9.8147330819328532e-10 0.0000000000000000e+00  9.5375720532518840e-07 -5.8753490319413875e-08 0.0000000000000000e+00  1.0654408701887376e-06 -3.1696574334601221e-08 0.0000000000000000e+00  1.0341214173596528e-06 -1.0217299213720518e-08 0.0000000000000000e+00  1.0406263453003566e-06 -3.1737146243987732e-10 0.0000000000000000e+00  1.0411804040692301e-06 -6.9881311585343358e-10 0.0000000000000000e+00  1.0412073863609169e-06 -1.6497705647610323e-10 0.0000000000000000e+00  6.8254346191582275e-22 -2.7775726991852230e-21 0.0000000000000000e+00  9.1355391542415324e-22 2.2398592436807189e-21 0.0000000000000000e+00  1.0406515588471622e-06 5.0103675011328710e-10 0.0000000000000000e+00  1.0404272245570166e-06 -1.6752669334674544e-09 0.0000000000000000e+00  1.0413680977106853e-06 2.0272915345128617e-10 0.0000000000000000e+00  1.0333265903098313e-06 4.6006928402134552e-10 0.0000000000000000e+00  1.0353281958820778e-06 5.5779627876123443e-10 0.0000000000000000e+00  1.0410146000343117e-06 -1.3992131855217619e-08 0.0000000000000000e+00  1.0278146861856415e-06 -6.4597495923106434e-08 0.0000000000000000e+00  1.0140887627527347e-06 1.1101138728222711e-09 0.0000000000000000e+00  1.0339000699525715e-06 9.0218151808724175e-10 0.0000000000000000e+00  1.0341546964961072e-06 -8.8783077134301731e-11 0.0000000000000000e+00  9.9383238007344755e-07 4.1201184342498918e-10 0.0000000000000000e+00  1.0368853420629021e-06 1.3575400805896681e-08 0.0000000000000000e+00  1.0403983405914062e-06 -1.4514696241336829e-10 0.0000000000000000e+00  1.0301668268203731e-06 1.2220769275763047e-09 0.0000000000000000e+00  7.7737170314451351e-09 -1.2259922944205747e-06 0.0000000000000000e+00  1.0405764883884170e-06 6.4293565832148805e-10 0.0000000000000000e+00  1.1448978605505091e-08 1.0599865663347946e-06 0.0000000000000000e+00  -4.3714016964382751e-20 -4.6278563421081336e-20 0.0000000000000000e+00  -8.4387502976385014e-22 6.1553237465127889e-21 0.0000000000000000e+00  4.2428354044688539e-22 7.0506288166839155e-21 0.0000000000000000e+00  3.8020675037852131e-22 -6.9749904004121891e-21 0.0000000000000000e+00  -8.5734600345493496e-22 -7.8979753045545522e-21 0.0000000000000000e+00  -4.6518746432390330e-20 3.7812870671251438e-20 0.0000000000000000e+00  1.0371151079553137e-06 -7.2029184290822303e-10 0.0000000000000000e+00  1.0002707197798054e-06 -8.1881381989685414e-10 0.0000000000000000e+00  1.0004495064156202e-06 -2.4159200234325954e-09 0.0000000000000000e+00  9.9934179602995331e-07 3.5387497765191341e-10 0.0000000000000000e+00  9.9985383947881872e-07 -1.3679303516427691e-10 0.0000000000000000e+00  9.9901022247933182e-07 1.0986663856795578e-09 0.0000000000000000e+00  1.0317513760370651e-06 1.3661258870288183e-09 0.0000000000000000e+00  1.0362054280445231e-06 1.5080834192956859e-08 0.0000000000000000e+00  1.0320816291357840e-06 -1.8071484420779704e-10 0.0000000000000000e+00  1.0392758239780721e-06 -6.0097328619919816e-10 0.0000000000000000e+00  1.0408088454690433e-06 2.9271993383894145e-10 0.0000000000000000e+00  1.0411462262622656e-06 -2.2912835468166182e-10 0.0000000000000000e+00  -1.8999118787531685e-07 1.5397683780275969e-06 0.0000000000000000e+00  -3.8804968690452426e-07 -1.6050064184334226e-06 0.0000000000000000e+00  1.0022570375526852e-06 -3.4114046081999980e-09 0.0000000000000000e+00  1.0299717934756301e-06 1.2875970095960274e-09 0.0000000000000000e+00  1.0412621344525597e-06 -2.0907713455129068e-10 0.0000000000000000e+00  1.0410381307517474e-06 -2.3774980407135275e-10 0.0000000000000000e+00  6.8330005716008046e-21 8.4206099232511756e-23 0.0000000000000000e+00  9.2070888606439237e-07 6.6720885893048501e-08 0.0000000000000000e+00  4.2836216801433347e-06 5.0226178164581595e-06 0.0000000000000000e+00  4.3552477500714329e-06 -5.3609107877156895e-06 0.0000000000000000e+00  1.0416477092087120e-06 -1.6743958292420714e-10 0.0000000000000000e+00  9.9185091273888527e-07 9.9989998945014739e-10 0.0000000000000000e+00  7.2547201492030049e-21 2.0491846603104071e-23 0.0000000000000000e+00  9.9633653559098480e-07 -1.6014881665639632e-09 0.0000000000000000e+00  1.0416573416948858e-06 1.8378718248353314e-10 0.0000000000000000e+00  1.0274403127512361e-06 8.2688159180034775e-08 0.0000000000000000e+00  1.0398687608622670e-06 4.2620200786387002e-11 0.0000000000000000e+00  7.6893307167136683e-21 -7.4683102663737592e-23 0.0000000000000000e+00  1.0411050146015722e-06 4.1803888413528786e-10 0.0000000000000000e+00  1.0407053932923183e-06 -4.6409693187704016e-10 0.0000000000000000e+00  1.0321371649259361e-06 -3.5177783454605566e-10 0.0000000000000000e+00  1.0349300264020369e-06 1.9727600307925428e-10 0.0000000000000000e+00  1.0323704431984510e-06 -7.8366782723211108e-10 0.0000000000000000e+00  7.3392643511293086e-21 6.0031174151952554e-23 0.0000000000000000e+00  1.0355379408745082e-06 -3.0095058386593068e-10 0.0000000000000000e+00  1.0412132355089778e-06 8.2892228218589724e-10 0.0000000000000000e+00  1.0016071931193620e-06 2.3515810608016485e-09 0.0000000000000000e+00  1.0410486297414680e-06 -4.5041838924710876e-11 0.0000000000000000e+00  1.0412123377364524e-06 -5.1828248080859051e-09 0.0000000000000000e+00  1.0402721778509176e-06 1.4367954441691227e-10 0.0000000000000000e+00  1.0404048476589253e-06 -2.4460912699414564e-10 0.0000000000000000e+00  1.0041592762178286e-06 -1.5728739856882098e-08 0.0000000000000000e+00  1.0348536317557286e-06 6.3144489144760610e-10 0.0000000000000000e+00  1.0344481312214144e-06 -9.2561199010974623e-10 0.0000000000000000e+00  1.0334140141351163e-06 -6.6988581658399154e-10 0.0000000000000000e+00  1.0352073675735518e-06 -1.6933916357672475e-09 0.0000000000000000e+00  1.0402034303282204e-06 3.2072152299213355e-10 0.0000000000000000e+00  7.7926268967005871e-21 -9.2162563149487537e-23 0.0000000000000000e+00  9.6337737891325955e-07 -5.5743829067523130e-07 0.0000000000000000e+00  5.6897810185451929e-07 -1.0492439509669707e-06 0.0000000000000000e+00  2.4257811251962493e-07 -7.8876176847848763e-07 0.0000000000000000e+00  7.4443917017281719e-07 -2.6714099152038564e-07 0.0000000000000000e+00  1.0413679718096958e-06 5.4294006376189632e-11 0.0000000000000000e+00  1.0405149230930648e-06 -5.4908483613844760e-10 0.0000000000000000e+00  1.0403862266639322e-06 8.8385231344784516e-11 0.0000000000000000e+00  1.0403628818572581e-06 -1.9904028549189031e-10 0.0000000000000000e+00  1.0389819774020906e-06 -2.2513618155975829e-09 0.0000000000000000e+00  1.0342648436862354e-06 2.3044503709760442e-09 0.0000000000000000e+00  8.4845398793309706e-21 1.5707456826368061e-23 0.0000000000000000e+00  1.0335224280922575e-06 1.4429972120977253e-09 0.0000000000000000e+00  1.0403983660530315e-06 -3.0818636114741786e-10 0.0000000000000000e+00  1.0403683010289682e-06 4.5169292527124284e-12 0.0000000000000000e+00  1.0332822581350788e-06 9.2753433570765423e-10 0.000000