<?xml version="1.0"?>
<VTKFile type="UnstructuredGrid"  version="0.1"  >
<UnstructuredGrid>
<Piece  NumberOfPoints="1079" NumberOfCells="1944">
<Points>
<DataArray  type="Float64"  NumberOfComponents="3"  format="ascii">0.08500000000000001 0.02 0  0.005 0.02 0  0.005 0.03 0  0 0.03 0  0 0 0  0.005 0 0  0.005 0.01 0  0.08500000000000001 0.01 0  0 0.015 0  0 0.0075 0  0 0.0225 0  0.04500000000000001 0.02 0  0.04500000000000001 0.01 0  0.025 0.01 0  0.025 0.02 0  0.065 0.02 0  0.065 0.01 0  0.035 0.02 0  0.035 0.01 0  0.07500000000000001 0.02 0  0.07500000000000001 0.01 0  0.015 0.02 0  0.015 0.01 0  0.05500000000000001 0.01 0  0.05500000000000001 0.02 0  0.07000000000000001 0.01 0  0.07000000000000001 0.02 0  0.05 0.01 0  0.03 0.01 0  0.03 0.02 0  0.04000000000000001 0.01 0  0.01 0.01 0  0.02 0.02 0  0.06 0.015 0  0.08500000000000001 0.015 0  0.05 0.02 0  0.07250000000000001 0.015 0  0.04000000000000001 0.02 0  0.03750000000000001 0.015 0  0.0525 0.015 0  0.02 0.01 0  0.01 0.02 0  0.0275 0.015 0  0.0125 0.015 0  0.08000000000000002 0.01 0  0.08000000000000002 0.02 0  0.0325 0.014375 0  0.04291666666666667 0.015 0  0.065 0.015 0  0.005 0.005 0  0.005 0.015 0  0.02208333333333334 0.015 0  0.07791666666666668 0.015 0  0.005 0.025 0  0.06 0.01 0  0.06 0.02 0  0.01729166666666667 0.01572916666666667 0  0.04770833333333334 0.01427083333333334 0  0.06875000000000001 0.01625 0  0.008750000000000001 0.01625 0  0.05625000000000001 0.01625 0  0 0.00375 0  0 0.01875 0  0 0.01125 0  0 0.02625 0  0.08145833333333334 0.01354166666666667 0  0.0675 0.01 0  0.0075 0.0125 0  0.0625 0.0175 0  0.0575 0.0125 0  0.0625 0.0125 0  0.08207465277777778 0.01707465277777778 0  0.06767857142857144 0.01321428571428571 0  0.0175 0.01 0  0.01875 0.01291382575757576 0  0.0475 0.02 0  0.04564168086314595 0.01679860519591141 0  0.00296875 0.0125 0  0.0025 0.03 0  0.0025 0 0  0.00296875 0.0175 0  0.01521990740740741 0.0132349537037037 0  0.0497800925925926 0.0167650462962963 0  0.0325 0.02 0  0.03474264705882353 0.01674632352941176 0  0.03750000000000001 0.02 0  0.03025735294117647 0.01674632352941176 0  0.0275 0.02 0  0.0525 0.02 0  0.0125 0.01 0  0.04020833333333334 0.01322916666666667 0  0.03750000000000001 0.01 0  0.0225 0.02 0  0.02479166666666667 0.01677083333333333 0  0.07520833333333335 0.01322916666666667 0  0.07250000000000001 0.01 0  0.07520833333333335 0.01677083333333334 0  0.07250000000000001 0.02 0  0.04020833333333334 0.01677083333333333 0  0.0225 0.01 0  0.02375 0.01262152777777778 0  0.04250000000000001 0.02 0  0.04250000000000001 0.01 0  0.07750000000000001 0.01 0  0.07750000000000001 0.02 0  0.05036151960784314 0.01294424019607843 0  0.0705560064935065 0.01284699675324675 0  0.05458333333333334 0.01291666666666666 0  0.0021875 0.024375 0  0.005 0.0275 0  0.01125 0.0175 0  0.01463848039215686 0.01705575980392157 0  0.01 0.01375 0  0.03625 0.0125 0  0.0021875 0.009375 0  0.05375000000000001 0.0175 0  0.07125000000000001 0.0175 0  0.005 0.0025 0  0.0021875 0.005625 0  0.02655220103578155 0.01234889948210923 0  0.002187499999999999 0.020625 0  0.02979166666666667 0.01302083333333333 0  0.0525 0.01 0  0.07895833333333334 0.0125 0  0.01994277885235332 0.01704213007736944 0  0.07934656179076068 0.01733823814273861 0  0.04505722114764669 0.01295786992263056 0  0.06625 0.0175 0  0.006250000000000001 0.0175 0  0.05750000000000001 0.02 0  0.05875000000000001 0.0175 0  0.005 0.0225 0  0.005 0.0075 0  0.002375 0.027375 0  0.002375 0.002625000000000001 0  0.0475 0.01 0  0.0175 0.02 0  0.0325 0.01 0  0.03375 0.0121875 0  0.04261299435028249 0.01749205508474576 0  0.08500000000000001 0.0125 0  0.08250000000000002 0.01 0  0.02121963399965531 0.01224824108143494 0  0.0675 0.02 0  0.0125 0.02 0  0.02720152243589744 0.0175 0  0.03715165441176471 0.0175 0  0.08500000000000001 0.0175 0  0.0275 0.01 0  0.0025 0.0149560546875 0  0.0075 0.01 0  0.0075 0.02 0  0.06526785714285716 0.0125 0  0.01281031447005516 0.0125 0  0.0625 0.015 0  0.06 0.0125 0  0.05750000000000001 0.01 0  0.0625 0.02 0  0.0625 0.01 0  0.08250000000000002 0.02 0  0.04260103740101855 0.01252623201412851 0  0.02240052247582197 0.01750164767101344 0  0.07293583459427785 0.01238479732953041 0  0.005234374999999999 0.012265625 0  0.03528131980640358 0.01454684009679821 0  0.0325 0.01760027210036557 0  0.02532593822924343 0.01428227733767297 0  0.08009952069819683 0.01527145502895417 0  0.01987282359856536 0.01482587683689801 0  0.04828232595121382 0.01210233572595705 0  0.01671767404878618 0.01789766427404295 0  0.05125 0.01829007549029352 0  0.05247215456215357 0.01288882122882024 0  0.07338729919678716 0.01799385040160642 0  0.03838729919678716 0.01200614959839357 0  0.07717482110586968 0.01780301674207099 0  0.04771860040890012 0.01773306039388322 0  0.03125 0.01160380747126437 0  0.06875000000000001 0.01154265873015873 0  0.07625000000000001 0.01154065860215054 0  0.01625 0.01153997817696946 0  0.068125 0.018125 0  0.05437500000000001 0.015625 0  0.066875 0.015625 0  0.07039794950204951 0.01494384850614853 0  0.05687500000000001 0.018125 0  0.006875 0.015625 0  0.008749999999999999 0.01833333333333333 0  0.010625 0.015625 0  0.05625 0.01416666666666667 0  0.05812500000000001 0.015625 0  0.0449088595298192 0.01494528408816316 0  0 0.016875 0  0 0.013125 0  0.04962452342047931 0.01478673066448802 0  0.0153754765795207 0.01521326933551198 0  0.0771774565913315 0.01322498191305479 0  0.01857756431135545 0.01840228599899994 0  0.04642243568864456 0.01159771400100006 0  0.08125000000000002 0.01155637254901961 0  0.08317650804863432 0.0118234919513657 0  0.08288217288011697 0.01511353252923977 0  0.02837253504384828 0.0117177464035174 0  0.03896057962520807 0.01831163685754031 0  0.01125 0.0114244162490927 0  0.00935910490099115 0.0119067901980177 0  0.02946078431372549 0.01495404411764706 0  0.02875 0.0185829434466942 0  0.002968749999999999 0.0225 0  0.064375 0.016875 0  0.00296875 0.0075 0  0 0.001875 0  0 0.005625 0  0 0.009375 0  0 0.020625 0  0 0.024375 0  0 0.028125 0  0.06062500000000001 0.01812500000000001 0  0.008303571428571429 0.01446428571428572 0  0.01375 0.01865917058160413 0  0.05137790313978056 0.01143372888932909 0  0.04125000000000001 0.01131513063942604 0  0.04101690263896279 0.01844430285842771 0  0.02399563533148224 0.01844349395710867 0  0.08125000000000002 0.01868815426145731 0  0.05354684380692146 0.01145463537600848 0  0.01699195823639423 0.01315138909884649 0  0.07598357371794873 0.015 0  0.04098357371794872 0.015 0  0.003744047619047619 0.00375 0  0.003344630281690141 0.02580853873239437 0  0.04625 0.0187354532243972 0  0.06388392857142858 0.01138392857142858 0  0.06375 0.01375 0  0.05875 0.01375 0  0.06375 0.02 0  0.00622802734375 0.01372802734375 0  0.003630681818181818 0.001369318181818182 0  0.003630681818181818 0.02863068181818182 0  0.06125 0.01625 0  0.06125 0.01125 0  0.05625000000000001 0.01 0  0.05875 0.01125 0  0.06125 0.01375 0  0.08337864763241221 0.0183786476324122 0  0.05213634138653413 0.01674432930673294 0  0.04375000000000001 0.01 0  0.07424178685897437 0.01529258578431373 0  0.03924178685897436 0.01529258578431372 0  0.03410139294454583 0.01843406022904556 0  0.03089860705545417 0.01843406022904556 0  0.02094160484316717 0.01850229584291991 0  0.04375000000000001 0.02 0  0.04437042160883325 0.01820701498672512 0  0.04816311705429156 0.01600061344661149 0  0.07151224904251052 0.0114127410511319 0  0.04395528506193162 0.01639387970349481 0  0.0128750358694518 0.0167500179347259 0  0.02855808448399799 0.01642839899839741 0  0.02812690373330794 0.01340955081400569 0  0.08358500641945087 0.01351822349116885 0  0.05590277777777778 0.01173611111111111 0  0.06683110430364615 0.01164926404662283 0  0.02573206694914602 0.01842532451809762 0  0.01438126661842046 0.01166701193099454 0  0.02384283211216029 0.01526549696571563 0  0.03625 0.02 0  0.004609375000000001 0.0182421875 0  0.003398437500000001 0.01943359375 0  0.001728307845744682 0.01894718251329787 0  0.004377805359085963 0.01656966216675735 0  0.04649673309852075 0.0153889662370871 0  0.03615513600614297 0.01592654988586041 0  0.03316985071935832 0.01598763605018279 0  0.03110111603888768 0.01529816275177977 0  0.01370614113484869 0.0138804542047638 0  0.04930041102671841 0.01842260568883502 0  0.07875000000000001 0.02 0  0.0745395359848485 0.01165101111925709 0  0.03860755698543604 0.01373741558556884 0  0.02605038706571737 0.01573944002207753 0  0.07559826163500957 0.01841729376139847 0  0.04437500000000001 0.01149157931286774 0  0.06874116707361365 0.01454618473032123 0  0.003761917372881356 0.0239307468220339 0  0.003984374999999999 0.01125 0  0.003768503289473684 0.01392539576480263 0  0.001796875 0.0111328125 0  0.003761917372881356 0.008930746822033899 0  0.005 0.00625 0  0.003761917372881355 0.0210692531779661 0  0.06633928571428571 0.01410714285714285 0  0.006484375 0.01125 0  0.08364120589325512 0.01657288979763549 0  0.03576267476503373 0.0184116442851204 0  0.07370875846579374 0.0137848203678562 0  0.06964285714285715 0.01758928571428571 0  0.05520833333333334 0.01833333333333333 0  0.06491071428571429 0.01839285714285714 0  0.0510098951944636 0.01559941474766356 0  0.01786087179886325 0.0115702210443714 0  0.01972197383235524 0.01160576093166696 0  0.01804697593127788 0.01433503795474974 0  0.001644074528704677 0.01642892723865279 0  0.00125 0.03 0  0.001497685185185185 0.001267746913580247 0  0.07315451164202422 0.01643443118912983 0  0.001233906745910645 0.0140625 0  0.01162635071030191 0.01362229857939618 0  0.01528023503083844 0.01845923557506155 0  0.06625 0.02 0  0.07695012019230771 0.01624387078484555 0  0.03139091092855769 0.01320776147621796 0  0.03857339107781042 0.01675295051810485 0  0.001754993120977522 0.02590789105493891 0  0.002288757784711197 0.00412546923654445 0  0.07914382119690884 0.01404430049871201 0  0.001391810103286306 0.01257390899021902 0  0.0419501201923077 0.01614675005432421 0  0.001484375 0.007018229166666667 0  0.001484375 0.02201822916666666 0  0.048
[...]
<PointData  Vectors="velocity"> 
<DataArray  type="Float64"  Name="velocity"  NumberOfComponents="3" format="ascii">2.0981016340843387e-06 1.5601115957748022e-20 0.0000000000000000e+00  4.4033567678666667e-20 -4.9224516713956636e-20 0.0000000000000000e+00  1.8611563782443173e-18 -1.0235310218990334e-04 0.0000000000000000e+00  -2.1093105620102275e-18 -1.0235310218990313e-04 0.0000000000000000e+00  -2.1299900773240551e-18 1.0235310218990320e-04 0.0000000000000000e+00  1.9076852877004285e-18 1.0235310218990312e-04 0.0000000000000000e+00  4.2770947552230430e-20 4.0478436063549126e-20 0.0000000000000000e+00  2.1547895432675404e-06 -1.5904439162142673e-20 0.0000000000000000e+00  4.6974750741254229e-21 -2.6202313921532937e-22 0.0000000000000000e+00  -5.7417405718141250e-22 4.0707337197199134e-20 0.0000000000000000e+00  2.2174402509128384e-22 -4.4070411908537983e-20 0.0000000000000000e+00  4.2623821612364369e-20 -1.5342710871647973e-22 0.0000000000000000e+00  3.4308371958896690e-20 2.0817716264590452e-22 0.0000000000000000e+00  4.1705399686702086e-20 1.1666854770755078e-22 0.0000000000000000e+00  3.3759950453825450e-20 -1.4032499620468813e-22 0.0000000000000000e+00  3.5954919770781990e-20 1.1416606926486421e-22 0.0000000000000000e+00  3.8654480775408625e-20 5.1649590617584031e-23 0.0000000000000000e+00  3.0807801711280512e-20 -7.3638706903270205e-23 0.0000000000000000e+00  4.3564941813450531e-20 -5.7141692645298691e-23 0.0000000000000000e+00  3.8218799552337838e-20 2.4599469002713361e-22 0.0000000000000000e+00  3.5181414213705011e-20 1.4186054118429440e-22 0.0000000000000000e+00  3.3638531487442804e-20 -9.0167938658420240e-23 0.0000000000000000e+00  3.3296764281773943e-20 -7.0858568020462545e-23 0.0000000000000000e+00  4.0583941062281100e-20 -4.2424028254483014e-22 0.0000000000000000e+00  3.5326209369412459e-20 1.6377238521465416e-22 0.0000000000000000e+00  3.5111410653216783e-20 5.7241936918499722e-23 0.0000000000000000e+00  4.0844624489554930e-20 -1.4783144161258614e-22 0.0000000000000000e+00  4.0155062234092846e-20 1.2716190759260856e-22 0.0000000000000000e+00  3.9587754861783878e-20 2.8147132448671034e-23 0.0000000000000000e+00  3.2800671563326489e-20 -8.8349207871958020e-23 0.0000000000000000e+00  3.5930229381510762e-20 1.2455903331662351e-22 0.0000000000000000e+00  3.7271304156334909e-20 2.1365956623710655e-22 0.0000000000000000e+00  3.2934604823571885e-20 -7.0430208242216349e-23 0.0000000000000000e+00  5.3523021602568676e-06 -7.8239213853589429e-10 0.0000000000000000e+00  5.1404680267004624e-06 1.0544855325209456e-23 0.0000000000000000e+00  3.3108221652313026e-20 1.7478803589942214e-23 0.0000000000000000e+00  5.3522035106842624e-06 1.8043788876061938e-09 0.0000000000000000e+00  3.9444202100693219e-20 -3.6272744444810658e-22 0.0000000000000000e+00  5.3477482305795047e-06 -2.6032088245075345e-09 0.0000000000000000e+00  5.3467269497736556e-06 -2.9127264979308923e-10 0.0000000000000000e+00  3.5767554285182252e-20 1.6606988226195896e-23 0.0000000000000000e+00  3.9407863535402586e-20 -7.5128985120559174e-22 0.0000000000000000e+00  5.3474166579734581e-06 -1.3912965509065313e-10 0.0000000000000000e+00  5.3362638536984796e-06 -2.0731091669408869e-08 0.0000000000000000e+00  3.3233228879054801e-20 -1.3039426608795810e-22 0.0000000000000000e+00  3.7042636972999015e-20 6.7787340968383637e-22 0.0000000000000000e+00  5.3461788819873047e-06 1.5678978708254096e-10 0.0000000000000000e+00  5.3515985838549402e-06 -5.2180124848551893e-10 0.0000000000000000e+00  5.3501553135901076e-06 -4.5023138817706613e-10 0.0000000000000000e+00  -2.7368217671751972e-21 4.7969021519216187e-20 0.0000000000000000e+00  4.0429599472207103e-06 -2.1096319771865947e-07 0.0000000000000000e+00  5.3453399089252334e-06 1.3072124495309731e-09 0.0000000000000000e+00  5.3439456522709580e-06 2.7511196905799548e-10 0.0000000000000000e+00  -4.2173578508354911e-21 -5.9050460474099350e-20 0.0000000000000000e+00  3.5381358232248970e-20 6.3739961141858342e-23 0.0000000000000000e+00  3.9267789680394645e-20 4.7331561515055074e-22 0.0000000000000000e+00  5.3478604942937664e-06 -1.8974606398852239e-09 0.0000000000000000e+00  5.3495653830049381e-06 1.4147083030106864e-09 0.0000000000000000e+00  5.3501956192373186e-06 -1.3649461030258363e-09 0.0000000000000000e+00  5.2679267922287571e-06 -1.7011822797079112e-07 0.0000000000000000e+00  5.3463913534582504e-06 -4.0221610496948353e-09 0.0000000000000000e+00  -2.4496949275760949e-20 7.4346135653435796e-21 0.0000000000000000e+00  2.2105997007226862e-21 -2.1748294790281445e-20 0.0000000000000000e+00  2.9337905137398286e-21 2.3686308687617266e-20 0.0000000000000000e+00  -2.8601769171347958e-20 7.2219467157653593e-21 0.0000000000000000e+00  5.2948222048029239e-06 -5.1152388780956726e-08 0.0000000000000000e+00  3.2699686081976702e-20 -1.0101073269962076e-22 0.0000000000000000e+00  5.2731680181100351e-06 3.0379163019027153e-07 0.0000000000000000e+00  5.3402293704650140e-06 1.5008060000580365e-10 0.0000000000000000e+00  5.3426187100044188e-06 4.5159801841197922e-10 0.0000000000000000e+00  5.3474052072629425e-06 -2.2949649984857384e-09 0.0000000000000000e+00  5.2890505788832470e-06 9.7808771807442511e-08 0.0000000000000000e+00  5.3468163562678613e-06 -1.0835597368119367e-09 0.0000000000000000e+00  3.5656011024982837e-20 -7.0501825179498980e-24 0.0000000000000000e+00  5.3425180538706807e-06 -9.1105754305486693e-11 0.0000000000000000e+00  4.4921202871653556e-20 6.3448631152083074e-22 0.0000000000000000e+00  5.3515905044592604e-06 -4.0771389414414620e-09 0.0000000000000000e+00  2.5579944213804197e-06 2.0866761902706724e-06 0.0000000000000000e+00  -1.1007911896911392e-19 -1.0235310218990370e-04 0.0000000000000000e+00  -1.7563467434980597e-19 1.0235310218990370e-04 0.0000000000000000e+00  2.6488926382285032e-06 -2.6050527781958051e-06 0.0000000000000000e+00  5.3404422250254448e-06 -7.5012539130954043e-09 0.0000000000000000e+00  5.3450934661982223e-06 4.8041157994256886e-09 0.0000000000000000e+00  3.4707949872936899e-20 3.2077452863339933e-22 0.0000000000000000e+00  5.3446344331242592e-06 -1.6489142866110889e-09 0.0000000000000000e+00  3.9526676547298759e-20 2.3111429397941870e-22 0.0000000000000000e+00  5.3456658866834595e-06 -1.6988616701649790e-09 0.0000000000000000e+00  3.8486943683710781e-20 8.2287359860973993e-23 0.0000000000000000e+00  3.6034306469406760e-20 -6.7839228661800227e-24 0.0000000000000000e+00  3.8891475498145788e-20 2.1778754899720930e-22 0.0000000000000000e+00  5.3473917668676572e-06 1.6545037276465457e-09 0.0000000000000000e+00  3.6449485335080735e-20 1.1958770294414766e-22 0.0000000000000000e+00  3.8727229876891781e-20 9.4852003789569588e-23 0.0000000000000000e+00  5.3440217696955281e-06 4.0958903650696547e-10 0.0000000000000000e+00  5.3492270004786652e-06 8.5219418911889609e-10 0.0000000000000000e+00  3.7741443366719846e-20 1.6829605725853322e-23 0.0000000000000000e+00  5.3482031904115011e-06 3.6696524190139954e-09 0.0000000000000000e+00  4.1178804322029921e-20 4.4993158672213401e-22 0.0000000000000000e+00  5.3506765890932100e-06 -6.7923194327256082e-09 0.0000000000000000e+00  3.5766073553829279e-20 7.9247963658202339e-24 0.0000000000000000e+00  5.3394028181248009e-06 3.6008995162609622e-09 0.0000000000000000e+00  3.9814446518471204e-20 -7.3360934770178374e-24 0.0000000000000000e+00  3.6121380840923919e-20 3.5567015624598752e-22 0.0000000000000000e+00  3.9333280090761251e-20 6.5255429088686035e-22 0.0000000000000000e+00  4.1556954963507459e-20 -2.5659839351333556e-22 0.0000000000000000e+00  5.3485368877680465e-06 4.0514236572455012e-09 0.0000000000000000e+00  5.3497876775781238e-06 6.3246948863352508e-09 0.0000000000000000e+00  5.3482271980856321e-06 6.6015899811550256e-10 0.0000000000000000e+00  -1.1203496568000730e-06 -5.8781870126090182e-06 0.0000000000000000e+00  6.2148675606034613e-21 -8.1913133243443728e-20 0.0000000000000000e+00  5.3673217673490641e-06 -4.5370826351642704e-08 0.0000000000000000e+00  5.3558607119457234e-06 -1.4934964170338778e-08 0.0000000000000000e+00  5.2847724493989298e-06 1.3139060214495517e-08 0.0000000000000000e+00  5.3354791087712591e-06 -5.7294894991805106e-09 0.0000000000000000e+00  8.9733434323316353e-07 4.7776122341793820e-06 0.0000000000000000e+00  5.3401334354247914e-06 -9.3939707928087655e-12 0.0000000000000000e+00  5.3514846604966630e-06 -2.7018403650848182e-12 0.0000000000000000e+00  1.5586922306241416e-20 4.4274212584333158e-20 0.0000000000000000e+00  -9.8816584007561726e-07 5.0791259079792483e-06 0.0000000000000000e+00  5.3393919590254138e-06 -3.6600365125648183e-09 0.0000000000000000e+00  8.9373191449028136e-07 -5.5066584003967994e-06 0.0000000000000000e+00  5.3485953463584345e-06 -8.8945923000856238e-10 0.0000000000000000e+00  3.4760458606363364e-20 -2.9553049731183705e-22 0.0000000000000000e+00  5.3382117106320944e-06 -1.6304166785322665e-08 0.0000000000000000e+00  5.3433244373194498e-06 3.8701637896711529e-11 0.0000000000000000e+00  5.3409798052593705e-06 2.4655262840752121e-08 0.0000000000000000e+00  5.3499123814892057e-06 -1.1904355151930855e-09 0.0000000000000000e+00  5.3476036284489540e-06 -6.3170780235088920e-09 0.0000000000000000e+00  5.3384620864505856e-06 -9.8443939216129202e-07 0.0000000000000000e+00  3.8354039439446776e-20 -5.3861237736959525e-22 0.0000000000000000e+00  5.3378775289028100e-06 -1.9038108291691492e-09 0.0000000000000000e+00  4.8365435882522755e-22 -4.9938318682344006e-20 0.0000000000000000e+00  4.1869501568787787e-22 4.4702191253153934e-20 0.0000000000000000e+00  -1.2255530786864958e-05 -1.3441045418776010e-05 0.0000000000000000e+00  -9.9681967162519983e-06 1.1041587821038191e-05 0.0000000000000000e+00  3.6178867944187408e-20 1.0836322267628018e-23 0.0000000000000000e+00  4.1922476875328746e-20 6.0639168699022918e-22 0.0000000000000000e+00  3.4925245109872556e-20 6.2237880260408928e-23 0.0000000000000000e+00  5.3381307202866260e-06 6.5071313876797681e-09 0.0000000000000000e+00  5.3403630689367193e-06 3.9262237537628885e-09 0.0000000000000000e+00  4.8580713374095326e-06 -1.3715507239437630e-21 0.0000000000000000e+00  3.4687846553985958e-20 -1.2713031997612042e-21 0.0000000000000000e+00  5.3402672183631093e-06 1.5044640172284889e-09 0.0000000000000000e+00  3.9096576091663821e-20 2.4031049228487283e-22 0.0000000000000000e+00  3.8101777896648213e-20 -7.0103474957035033e-23 0.0000000000000000e+00  5.3455198401257716e-06 -6.8097915000248599e-10 0.0000000000000000e+00  5.3513253566416825e-06 5.7269153619308450e-10 0.0000000000000000e+00  4.8525237362170524e-06 1.7861205319165138e-21 0.0000000000000000e+00  3.6649142661969531e-20 -4.8052241673027119e-22 0.0000000000000000e+00  1.9886890299335163e-06 -1.9509894904459683e-07 0.0000000000000000e+00  3.9998908353799730e-20 1.2636641423417895e-21 0.0000000000000000e+00  4.8152453586572485e-20 -1.8028302587858044e-21 0.0000000000000000e+00  5.3457507770869159e-06 -2.3948969722618286e-09 0.0000000000000000e+00  5.3271370640886123e-06 -6.4223893137352997e-09 0.0000000000000000e+00  5.3527873881570647e-06 3.6698631636883174e-11 0.0000000000000000e+00  5.3426871140960647e-06 3.3703116274409598e-09 0.0000000000000000e+00  4.0563834924400823e-20 4.5922098578496322e-23 0.0000000000000000e+00  4.1446359661916069e-20 1.1112704892413459e-22 0.0000000000000000e+00  3.6146059465790851e-20 -7.0534956778547164e-22 0.0000000000000000e+00  3.4278832158610063e-20 7.3925304069741845e-22 0.0000000000000000e+00  5.3416937097910042e-06 -8.6038349387868786e-10 0.0000000000000000e+00  5.3423576239871322e-06 2.0255931718640574e-09 0.0000000000000000e+00  5.3411030675725653e-06 -1.7654982692642848e-09 0.0000000000000000e+00  4.8433398121790448e-06 1.4440642593555064e-06 0.0000000000000000e+00  5.3485341114265322e-06 -1.5376444061888887e-09 0.0000000000000000e+00  5.3398012338492859e-06 1.7292187566874204e-09 0.0000000000000000e+00  5.3472205940687369e-06 1.5691780200165517e-09 0.0000000000000000e+00  5.3174781384078019e-06 5.9787610776409326e-09 0.0000000000000000e+00  5.3447883767286154e-06 3.6609863651360856e-10 0.0000000000000000e+00  5.3278775938194635e-06 1.4686168664683273e-09 0.0000000000000000e+00  5.3402982666259690e-06 9.7536443648818440e-10 0.0000000000000000e+00  5.3174257434312448e-06 3.9027976574877843e-10 0.0000000000000000e+00  5.3464585481994360e-06 -5.1313706281483925e-09 0.0000000000000000e+00  5.3305077746133701e-06 3.1292922951344347e-09 0.0000000000000000e+00  5.3255819305980796e-06 -1.9694365229149307e-09 0.0000000000000000e+00  5.3378382352675792e-06 2.1879889737175959e-09 0.0000000000000000e+00  5.3453784284287967e-06 6.6671716260536552e-09 0.0000000000000000e+00  5.3093514405384584e-06 -6.1812222356733134e-09 0.0000000000000000e+00  5.3088907670725257e-06 5.7822647285943311e-09 0.0000000000000000e+00  5.3176003877526179e-06 -8.2409232863280934e-10 0.0000000000000000e+00  5.3066758588566288e-06 -3.8556951893572779e-09 0.0000000000000000e+00  5.3201778952778517e-06 -3.2521655277337477e-09 0.0000000000000000e+00  5.3461279874640914e-06 -1.4554924746844673e-09 0.0000000000000000e+00  5.3491967812957886e-06 -9.8799810496482315e-10 0.0000000000000000e+00  5.3515440882010248e-06 1.2553435873835977e-09 0.0000000000000000e+00  5.3256002812531290e-06 -5.0448218672225937e-09 0.0000000000000000e+00  4.9013615873757200e-06 -3.0032340329379135e-07 0.0000000000000000e+00  5.4747205239645921e-06 -1.6242559198365012e-07 0.0000000000000000e+00  5.3145327211682115e-06 -5.2008066451800630e-08 0.0000000000000000e+00  5.3480568257363114e-06 -1.6311880048778345e-09 0.0000000000000000e+00  5.3509043982132210e-06 -3.5913716095440404e-09 0.0000000000000000e+00  5.3510427904215985e-06 -8.4769073352956059e-10 0.0000000000000000e+00  3.4885554720142051e-21 -1.3575031075881364e-20 0.0000000000000000e+00  4.9284760677908826e-21 1.1692249543688062e-20 0.0000000000000000e+00  5.3481859025422169e-06 2.5748564682985293e-09 0.0000000000000000e+00  5.3470260586741265e-06 -8.5068937675994402e-09 0.0000000000000000e+00  5.3518676321722347e-06 1.0407373410541582e-09 0.0000000000000000e+00  5.3105071716765202e-06 2.3787128383415097e-09 0.0000000000000000e+00  5.3208295462577447e-06 2.8637472527425373e-09 0.0000000000000000e+00  5.3500511517199206e-06 -7.1920444689780997e-08 0.0000000000000000e+00  5.2821905625425766e-06 -3.3199884449922216e-07 0.0000000000000000e+00  5.2116497222330797e-06 5.7064505817784317e-09 0.0000000000000000e+00  5.3134935327621347e-06 4.6362864760292170e-09 0.0000000000000000e+00  5.3147981892273043e-06 -4.5841942481744602e-10 0.0000000000000000e+00  5.1079373058127137e-06 2.2484806630375579e-09 0.0000000000000000e+00  5.3295056824704459e-06 7.0154247203210103e-08 0.0000000000000000e+00  5.3468848009610355e-06 -7.4492022018319434e-10 0.0000000000000000e+00  5.2943033435271359e-06 6.2822275295880257e-09 0.0000000000000000e+00  4.2124626571333790e-08 -6.2941633341242055e-06 0.0000000000000000e+00  5.3477995124078673e-06 3.3047666693366009e-09 0.0000000000000000e+00  6.0655979255889501e-08 5.4527471382268744e-06 0.0000000000000000e+00  -2.1583025578920769e-19 -2.3151593681415588e-19 0.0000000000000000e+00  -4.6235841966893305e-21 3.2904034773985419e-20 0.0000000000000000e+00  1.9840377233704864e-21 3.5750769749307657e-20 0.0000000000000000e+00  1.9598091033508102e-21 -3.7385380896939714e-20 0.0000000000000000e+00  -4.4166309268890588e-21 -4.0736925255070846e-20 0.0000000000000000e+00  -2.4483418405227071e-19 2.0027693091652937e-19 0.0000000000000000e+00  5.3300117933351884e-06 -3.7014409209930476e-09 0.0000000000000000e+00  5.1408576967306083e-06 -3.1675390528159806e-09 0.0000000000000000e+00  5.1414088166383819e-06 -1.2342784268337183e-08 0.0000000000000000e+00  5.1358869083792901e-06 1.8016656616479300e-09 0.0000000000000000e+00  5.1385171840255343e-06 -7.0942388080198142e-10 0.0000000000000000e+00  5.1341729095186084e-06 5.6628792980178697e-09 0.0000000000000000e+00  5.3024371335172951e-06 7.0233024010916434e-09 0.0000000000000000e+00  5.3253417351401543e-06 7.7509465856667274e-08 0.0000000000000000e+00  5.3041415064822719e-06 -9.2310431741289478e-10 0.0000000000000000e+00  5.3411504985612961e-06 -3.0382622424578347e-09 0.0000000000000000e+00  5.3489940005528196e-06 1.5041813809709754e-09 0.0000000000000000e+00  5.3507286393784963e-06 -1.1775172213678196e-09 0.0000000000000000e+00  -9.6594493246859078e-07 7.9000298969355358e-06 0.0000000000000000e+00  -1.9741023317249920e-06 -8.2268716514178318e-06 0.0000000000000000e+00  5.1508439710945503e-06 -1.7532751192672353e-08 0.0000000000000000e+00  5.2932969488997516e-06 6.6208588611243557e-09 0.0000000000000000e+00  5.3513238870060578e-06 -1.0745208018208824e-09 0.0000000000000000e+00  5.3501733378496793e-06 -1.2215957785521300e-09 0.0000000000000000e+00  3.8611545046116837e-20 4.3561982850432674e-22 0.0000000000000000e+00  4.7324435671897497e-06 3.4477111636232026e-07 0.0000000000000000e+00  2.1977525357865304e-05 2.5710635492583286e-05 0.0000000000000000e+00  2.2311067785738550e-05 -2.7418966293432897e-05 0.0000000000000000e+00  5.3533053378678177e-06 -8.6010935957387768e-10 0.0000000000000000e+00  5.0973625871880714e-06 5.1343130590295288e-09 0.0000000000000000e+00  3.7337704535373415e-20 9.6782003125006233e-23 0.0000000000000000e+00  5.1204415440570096e-06 -8.2408459134513974e-09 0.0000000000000000e+00  5.3533553945692223e-06 9.4441063508836242e-10 0.0000000000000000e+00  5.2802963960427109e-06 4.2494953737902243e-07 0.0000000000000000e+00  5.3441630711177723e-06 2.1877263078792277e-10 0.0000000000000000e+00  3.8466483628340902e-20 -3.7730084189280205e-22 0.0000000000000000e+00  5.3505163592258558e-06 2.1483652187960679e-09 0.0000000000000000e+00  5.3484629928626558e-06 -2.3850399525896976e-09 0.0000000000000000e+00  5.3044278894148922e-06 -1.8100410941749726e-09 0.0000000000000000e+00  5.3187813424068893e-06 1.0143409353877696e-09 0.0000000000000000e+00  5.3056120054866364e-06 -4.0189864600834873e-09 0.0000000000000000e+00  3.9193736986944352e-20 3.1865517488697979e-22 0.0000000000000000e+00  5.3219033484974511e-06 -1.5485419847261318e-09 0.0000000000000000e+00  5.3510724973874489e-06 4.2602984005384257e-09 0.0000000000000000e+00  5.1475290513024677e-06 1.2073763117496915e-08 0.0000000000000000e+00  5.3502269815933605e-06 -2.3130118935819601e-10 0.0000000000000000e+00  5.3509367212556146e-06 -2.6432517609800854e-08 0.0000000000000000e+00  5.3462359226890107e-06 7.3963907357078561e-10 0.0000000000000000e+00  5.3469187539402499e-06 -1.2562138161802950e-09 0.0000000000000000e+00  5.1606197040151912e-06 -8.0856318378346862e-08 0.0000000000000000e+00  5.3183913996160594e-06 3.2425785456774115e-09 0.0000000000000000e+00  5.3163031405625487e-06 -4.7600952333441293e-09 0.0000000000000000e+00  5.3109898545247643e-06 -3.4383930147045129e-09 0.0000000000000000e+00  5.3203271609164837e-06 -8.6364056948259975e-09 0.0000000000000000e+00  5.3458826967162390e-06 1.6543017081595522e-09 0.0000000000000000e+00  3.9538429086615061e-20 -4.5986795156441435e-22 0.0000000000000000e+00  4.9491214536967282e-06 -2.8616434096417072e-06 0.0000000000000000e+00  2.9227539603334896e-06 -5.3870788151056212e-06 0.0000000000000000e+00  1.2463083635200511e-06 -4.0491335888512344e-06 0.0000000000000000e+00  3.8251424437017134e-06 -1.3699822305940023e-06 0.0000000000000000e+00  5.3518680276908626e-06 2.7932508631321145e-10 0.0000000000000000e+00  5.3474841222962809e-06 -2.8219479753725091e-09 0.0000000000000000e+00  5.3468225222116095e-06 4.5445907738835897e-10 0.0000000000000000e+00  5.3467026177951467e-06 -1.0222220295154074e-09 0.0000000000000000e+00  5.3396731042065081e-06 -1.1402630846376339e-08 0.0000000000000000e+00  5.3153576878882939e-06 1.1841437935671809e-08 0.0000000000000000e+00  4.0693622549208258e-20 7.6024091039621414e-23 0.0000000000000000e+00  5.3115515047725088e-06 7.4134970771901054e-09 0.0000000000000000e+00  5.3468851111824139e-06 -1.5836920265790549e-09 0.0000000000000000e+00  5.3467297022865974e-06 2.5952165440842897e-11 0.0000000000000000e+00  5.3103138571016808e-06 4.7654318736858746e-09 0.000000