<?xml version="1.0"?>
<VTKFile type="UnstructuredGrid"  version="0.1"  >
<UnstructuredGrid>
<Piece  NumberOfPoints="1079" NumberOfCells="1944">
<Points>
<DataArray  type="Float64"  NumberOfComponents="3"  format="ascii">0.08500000000000001 0.02 0  0.005 0.02 0  0.005 0.03 0  0 0.03 0  0 0 0  0.005 0 0  0.005 0.01 0  0.08500000000000001 0.01 0  0 0.015 0  0 0.0075 0  0 0.0225 0  0.04500000000000001 0.02 0  0.04500000000000001 0.01 0  0.025 0.01 0  0.025 0.02 0  0.065 0.02 0  0.065 0.01 0  0.035 0.02 0  0.035 0.01 0  0.07500000000000001 0.02 0  0.07500000000000001 0.01 0  0.015 0.02 0  0.015 0.01 0  0.05500000000000001 0.01 0  0.05500000000000001 0.02 0  0.07000000000000001 0.01 0  0.07000000000000001 0.02 0  0.05 0.01 0  0.03 0.01 0  0.03 0.02 0  0.04000000000000001 0.01 0  0.01 0.01 0  0.02 0.02 0  0.06 0.015 0  0.08500000000000001 0.015 0  0.05 0.02 0  0.07250000000000001 0.015 0  0.04000000000000001 0.02 0  0.03750000000000001 0.015 0  0.0525 0.015 0  0.02 0.01 0  0.01 0.02 0  0.0275 0.015 0  0.0125 0.015 0  0.08000000000000002 0.01 0  0.08000000000000002 0.02 0  0.0325 0.014375 0  0.04291666666666667 0.015 0  0.065 0.015 0  0.005 0.005 0  0.005 0.015 0  0.02208333333333334 0.015 0  0.07791666666666668 0.015 0  0.005 0.025 0  0.06 0.01 0  0.06 0.02 0  0.01729166666666667 0.01572916666666667 0  0.04770833333333334 0.01427083333333334 0  0.06875000000000001 0.01625 0  0.008750000000000001 0.01625 0  0.05625000000000001 0.01625 0  0 0.00375 0  0 0.01875 0  0 0.01125 0  0 0.02625 0  0.08145833333333334 0.01354166666666667 0  0.0675 0.01 0  0.0075 0.0125 0  0.0625 0.0175 0  0.0575 0.0125 0  0.0625 0.0125 0  0.08207465277777778 0.01707465277777778 0  0.06767857142857144 0.01321428571428571 0  0.0175 0.01 0  0.01875 0.01291382575757576 0  0.0475 0.02 0  0.04564168086314595 0.01679860519591141 0  0.00296875 0.0125 0  0.0025 0.03 0  0.0025 0 0  0.00296875 0.0175 0  0.01521990740740741 0.0132349537037037 0  0.0497800925925926 0.0167650462962963 0  0.0325 0.02 0  0.03474264705882353 0.01674632352941176 0  0.03750000000000001 0.02 0  0.03025735294117647 0.01674632352941176 0  0.0275 0.02 0  0.0525 0.02 0  0.0125 0.01 0  0.04020833333333334 0.01322916666666667 0  0.03750000000000001 0.01 0  0.0225 0.02 0  0.02479166666666667 0.01677083333333333 0  0.07520833333333335 0.01322916666666667 0  0.07250000000000001 0.01 0  0.07520833333333335 0.01677083333333334 0  0.07250000000000001 0.02 0  0.04020833333333334 0.01677083333333333 0  0.0225 0.01 0  0.02375 0.01262152777777778 0  0.04250000000000001 0.02 0  0.04250000000000001 0.01 0  0.07750000000000001 0.01 0  0.07750000000000001 0.02 0  0.05036151960784314 0.01294424019607843 0  0.0705560064935065 0.01284699675324675 0  0.05458333333333334 0.01291666666666666 0  0.0021875 0.024375 0  0.005 0.0275 0  0.01125 0.0175 0  0.01463848039215686 0.01705575980392157 0  0.01 0.01375 0  0.03625 0.0125 0  0.0021875 0.009375 0  0.05375000000000001 0.0175 0  0.07125000000000001 0.0175 0  0.005 0.0025 0  0.0021875 0.005625 0  0.02655220103578155 0.01234889948210923 0  0.002187499999999999 0.020625 0  0.02979166666666667 0.01302083333333333 0  0.0525 0.01 0  0.07895833333333334 0.0125 0  0.01994277885235332 0.01704213007736944 0  0.07934656179076068 0.01733823814273861 0  0.04505722114764669 0.01295786992263056 0  0.06625 0.0175 0  0.006250000000000001 0.0175 0  0.05750000000000001 0.02 0  0.05875000000000001 0.0175 0  0.005 0.0225 0  0.005 0.0075 0  0.002375 0.027375 0  0.002375 0.002625000000000001 0  0.0475 0.01 0  0.0175 0.02 0  0.0325 0.01 0  0.03375 0.0121875 0  0.04261299435028249 0.01749205508474576 0  0.08500000000000001 0.0125 0  0.08250000000000002 0.01 0  0.02121963399965531 0.01224824108143494 0  0.0675 0.02 0  0.0125 0.02 0  0.02720152243589744 0.0175 0  0.03715165441176471 0.0175 0  0.08500000000000001 0.0175 0  0.0275 0.01 0  0.0025 0.0149560546875 0  0.0075 0.01 0  0.0075 0.02 0  0.06526785714285716 0.0125 0  0.01281031447005516 0.0125 0  0.0625 0.015 0  0.06 0.0125 0  0.05750000000000001 0.01 0  0.0625 0.02 0  0.0625 0.01 0  0.08250000000000002 0.02 0  0.04260103740101855 0.01252623201412851 0  0.02240052247582197 0.01750164767101344 0  0.07293583459427785 0.01238479732953041 0  0.005234374999999999 0.012265625 0  0.03528131980640358 0.01454684009679821 0  0.0325 0.01760027210036557 0  0.02532593822924343 0.01428227733767297 0  0.08009952069819683 0.01527145502895417 0  0.01987282359856536 0.01482587683689801 0  0.04828232595121382 0.01210233572595705 0  0.01671767404878618 0.01789766427404295 0  0.05125 0.01829007549029352 0  0.05247215456215357 0.01288882122882024 0  0.07338729919678716 0.01799385040160642 0  0.03838729919678716 0.01200614959839357 0  0.07717482110586968 0.01780301674207099 0  0.04771860040890012 0.01773306039388322 0  0.03125 0.01160380747126437 0  0.06875000000000001 0.01154265873015873 0  0.07625000000000001 0.01154065860215054 0  0.01625 0.01153997817696946 0  0.068125 0.018125 0  0.05437500000000001 0.015625 0  0.066875 0.015625 0  0.07039794950204951 0.01494384850614853 0  0.05687500000000001 0.018125 0  0.006875 0.015625 0  0.008749999999999999 0.01833333333333333 0  0.010625 0.015625 0  0.05625 0.01416666666666667 0  0.05812500000000001 0.015625 0  0.0449088595298192 0.01494528408816316 0  0 0.016875 0  0 0.013125 0  0.04962452342047931 0.01478673066448802 0  0.0153754765795207 0.01521326933551198 0  0.0771774565913315 0.01322498191305479 0  0.01857756431135545 0.01840228599899994 0  0.04642243568864456 0.01159771400100006 0  0.08125000000000002 0.01155637254901961 0  0.08317650804863432 0.0118234919513657 0  0.08288217288011697 0.01511353252923977 0  0.02837253504384828 0.0117177464035174 0  0.03896057962520807 0.01831163685754031 0  0.01125 0.0114244162490927 0  0.00935910490099115 0.0119067901980177 0  0.02946078431372549 0.01495404411764706 0  0.02875 0.0185829434466942 0  0.002968749999999999 0.0225 0  0.064375 0.016875 0  0.00296875 0.0075 0  0 0.001875 0  0 0.005625 0  0 0.009375 0  0 0.020625 0  0 0.024375 0  0 0.028125 0  0.06062500000000001 0.01812500000000001 0  0.008303571428571429 0.01446428571428572 0  0.01375 0.01865917058160413 0  0.05137790313978056 0.01143372888932909 0  0.04125000000000001 0.01131513063942604 0  0.04101690263896279 0.01844430285842771 0  0.02399563533148224 0.01844349395710867 0  0.08125000000000002 0.01868815426145731 0  0.05354684380692146 0.01145463537600848 0  0.01699195823639423 0.01315138909884649 0  0.07598357371794873 0.015 0  0.04098357371794872 0.015 0  0.003744047619047619 0.00375 0  0.003344630281690141 0.02580853873239437 0  0.04625 0.0187354532243972 0  0.06388392857142858 0.01138392857142858 0  0.06375 0.01375 0  0.05875 0.01375 0  0.06375 0.02 0  0.00622802734375 0.01372802734375 0  0.003630681818181818 0.001369318181818182 0  0.003630681818181818 0.02863068181818182 0  0.06125 0.01625 0  0.06125 0.01125 0  0.05625000000000001 0.01 0  0.05875 0.01125 0  0.06125 0.01375 0  0.08337864763241221 0.0183786476324122 0  0.05213634138653413 0.01674432930673294 0  0.04375000000000001 0.01 0  0.07424178685897437 0.01529258578431373 0  0.03924178685897436 0.01529258578431372 0  0.03410139294454583 0.01843406022904556 0  0.03089860705545417 0.01843406022904556 0  0.02094160484316717 0.01850229584291991 0  0.04375000000000001 0.02 0  0.04437042160883325 0.01820701498672512 0  0.04816311705429156 0.01600061344661149 0  0.07151224904251052 0.0114127410511319 0  0.04395528506193162 0.01639387970349481 0  0.0128750358694518 0.0167500179347259 0  0.02855808448399799 0.01642839899839741 0  0.02812690373330794 0.01340955081400569 0  0.08358500641945087 0.01351822349116885 0  0.05590277777777778 0.01173611111111111 0  0.06683110430364615 0.01164926404662283 0  0.02573206694914602 0.01842532451809762 0  0.01438126661842046 0.01166701193099454 0  0.02384283211216029 0.01526549696571563 0  0.03625 0.02 0  0.004609375000000001 0.0182421875 0  0.003398437500000001 0.01943359375 0  0.001728307845744682 0.01894718251329787 0  0.004377805359085963 0.01656966216675735 0  0.04649673309852075 0.0153889662370871 0  0.03615513600614297 0.01592654988586041 0  0.03316985071935832 0.01598763605018279 0  0.03110111603888768 0.01529816275177977 0  0.01370614113484869 0.0138804542047638 0  0.04930041102671841 0.01842260568883502 0  0.07875000000000001 0.02 0  0.0745395359848485 0.01165101111925709 0  0.03860755698543604 0.01373741558556884 0  0.02605038706571737 0.01573944002207753 0  0.07559826163500957 0.01841729376139847 0  0.04437500000000001 0.01149157931286774 0  0.06874116707361365 0.01454618473032123 0  0.003761917372881356 0.0239307468220339 0  0.003984374999999999 0.01125 0  0.003768503289473684 0.01392539576480263 0  0.001796875 0.0111328125 0  0.003761917372881356 0.008930746822033899 0  0.005 0.00625 0  0.003761917372881355 0.0210692531779661 0  0.06633928571428571 0.01410714285714285 0  0.006484375 0.01125 0  0.08364120589325512 0.01657288979763549 0  0.03576267476503373 0.0184116442851204 0  0.07370875846579374 0.0137848203678562 0  0.06964285714285715 0.01758928571428571 0  0.05520833333333334 0.01833333333333333 0  0.06491071428571429 0.01839285714285714 0  0.0510098951944636 0.01559941474766356 0  0.01786087179886325 0.0115702210443714 0  0.01972197383235524 0.01160576093166696 0  0.01804697593127788 0.01433503795474974 0  0.001644074528704677 0.01642892723865279 0  0.00125 0.03 0  0.001497685185185185 0.001267746913580247 0  0.07315451164202422 0.01643443118912983 0  0.001233906745910645 0.0140625 0  0.01162635071030191 0.01362229857939618 0  0.01528023503083844 0.01845923557506155 0  0.06625 0.02 0  0.07695012019230771 0.01624387078484555 0  0.03139091092855769 0.01320776147621796 0  0.03857339107781042 0.01675295051810485 0  0.001754993120977522 0.02590789105493891 0  0.002288757784711197 0.00412546923654445 0  0.07914382119690884 0.01404430049871201 0  0.001391810103286306 0.01257390899021902 0  0.0419501201923077 0.01614675005432421 0  0.001484375 0.007018229166666667 0  0.001484375 0.02201822916666666 0  0.048
[...]
<PointData  Vectors="velocity"> 
<DataArray  type="Float64"  Name="velocity"  NumberOfComponents="3" format="ascii">7.2181152455624634e-06 5.4889790175951162e-20 0.0000000000000000e+00  1.5501247808831437e-19 -1.7112231992197290e-19 0.0000000000000000e+00  6.2348738671184630e-18 -3.4304692863149414e-04 0.0000000000000000e+00  -7.5273435742325765e-18 -3.4304692863149360e-04 0.0000000000000000e+00  -7.0310352067007645e-18 3.4304692863149381e-04 0.0000000000000000e+00  6.7001629616795542e-18 3.4304692863149349e-04 0.0000000000000000e+00  1.4561332368772560e-19 1.3695813937047684e-19 0.0000000000000000e+00  7.4128613211203172e-06 -5.2959284330485550e-20 0.0000000000000000e+00  1.6870501879117109e-20 -9.2813015577478107e-22 0.0000000000000000e+00  -1.6682775636465283e-21 1.3390980839714234e-19 0.0000000000000000e+00  7.9382847080493793e-22 -1.4924827102333553e-19 0.0000000000000000e+00  1.4309818762763215e-19 -5.0551730585161733e-22 0.0000000000000000e+00  1.2292632884185035e-19 7.3210797390062959e-22 0.0000000000000000e+00  1.4162458643609250e-19 4.1406728204570754e-22 0.0000000000000000e+00  1.1660115905136021e-19 -4.9356260250037702e-22 0.0000000000000000e+00  1.2868076549543028e-19 4.5173624529262824e-22 0.0000000000000000e+00  1.3336768563422008e-19 1.8121785760952385e-22 0.0000000000000000e+00  1.0671843636877164e-19 -2.6012254343767841e-22 0.0000000000000000e+00  1.5195031761950193e-19 -1.8451304061916185e-22 0.0000000000000000e+00  1.3381757059977310e-19 8.3195515956686578e-22 0.0000000000000000e+00  1.1878455981831583e-19 4.8666046767389883e-22 0.0000000000000000e+00  1.1877881463152218e-19 -2.8273765689876498e-22 0.0000000000000000e+00  1.0999401937449960e-19 -2.4311056866917353e-22 0.0000000000000000e+00  1.3136003538180030e-19 -1.5142023132130935e-21 0.0000000000000000e+00  1.2781685557072164e-19 5.4609757934339772e-22 0.0000000000000000e+00  1.2593679523550482e-19 2.0403066624415743e-22 0.0000000000000000e+00  1.5066421796147111e-19 -5.4942079087512327e-22 0.0000000000000000e+00  1.3153138864057342e-19 4.2445613270618937e-22 0.0000000000000000e+00  1.3265370488773193e-19 4.6120602566497117e-23 0.0000000000000000e+00  1.0967440928921896e-19 -2.5923330977518343e-22 0.0000000000000000e+00  1.2275349665812692e-19 4.3091379295671032e-22 0.0000000000000000e+00  1.3553201511394512e-19 7.6388021911319513e-22 0.0000000000000000e+00  1.1634042223391627e-19 -2.5961500118481207e-22 0.0000000000000000e+00  1.8400410771950163e-05 -2.6868487355371871e-09 0.0000000000000000e+00  1.7671628311258437e-05 2.9539557263128491e-23 0.0000000000000000e+00  1.1357108129201509e-19 7.0308248034617410e-23 0.0000000000000000e+00  1.8400069488018123e-05 6.2033034693020339e-09 0.0000000000000000e+00  1.3594162509703197e-19 -1.2702339078650508e-21 0.0000000000000000e+00  1.8384755020053092e-05 -8.9486218722646901e-09 0.0000000000000000e+00  1.8381242320966562e-05 -1.0029936048580526e-09 0.0000000000000000e+00  1.2376709260586874e-19 6.3794398173034218e-23 0.0000000000000000e+00  1.4276056224145841e-19 -2.5985334544275878e-21 0.0000000000000000e+00  1.8383613535566705e-05 -4.6109095335577300e-10 0.0000000000000000e+00  1.8345272306011630e-05 -6.8558554856920332e-08 0.0000000000000000e+00  1.1520852678072332e-19 -4.8811304916111744e-22 0.0000000000000000e+00  1.2654258803918290e-19 2.3754540838835450e-21 0.0000000000000000e+00  1.8379360600465606e-05 5.4281613548727446e-10 0.0000000000000000e+00  1.8397993305972139e-05 -1.7929872868521197e-09 0.0000000000000000e+00  1.8393025765472138e-05 -1.5481262246208656e-09 0.0000000000000000e+00  -9.1559128210952047e-21 1.6560259711198285e-19 0.0000000000000000e+00  1.3899480033850647e-05 -7.0012536530999720e-07 0.0000000000000000e+00  1.8376474357472337e-05 4.6064422881936250e-09 0.0000000000000000e+00  1.8371659124021839e-05 9.4589407570959915e-10 0.0000000000000000e+00  -1.4120396020112532e-20 -1.9320210364315144e-19 0.0000000000000000e+00  1.1696850849382765e-19 3.0923347484663945e-22 0.0000000000000000e+00  1.3464971208847710e-19 1.6561533268300930e-21 0.0000000000000000e+00  1.8384987121519025e-05 -5.9947826922020926e-09 0.0000000000000000e+00  1.8390998406251484e-05 4.8638616337513003e-09 0.0000000000000000e+00  1.8393168374404468e-05 -4.6902683164679422e-09 0.0000000000000000e+00  1.8106914305690778e-05 -5.7635803670906137e-07 0.0000000000000000e+00  1.8380094648958396e-05 -1.3831690011649433e-08 0.0000000000000000e+00  -8.0700576280819307e-20 2.7621359768835260e-20 0.0000000000000000e+00  7.0968119841971020e-21 -6.6847390302759808e-20 0.0000000000000000e+00  1.0367259729534610e-20 8.2074139525482324e-20 0.0000000000000000e+00  -9.4385838265448258e-20 2.0307256111657050e-20 0.0000000000000000e+00  1.8202711189797442e-05 -1.7593318870352498e-07 0.0000000000000000e+00  1.1109684141659030e-19 -3.3670244233206920e-22 0.0000000000000000e+00  1.8138401074801742e-05 1.0543340387225697e-06 0.0000000000000000e+00  1.8358916017813460e-05 5.4715640647439579e-10 0.0000000000000000e+00  1.8367134753903744e-05 1.5400563040320293e-09 0.0000000000000000e+00  1.8383580940705216e-05 -7.9073325505518273e-09 0.0000000000000000e+00  1.8182852366327334e-05 3.3637303826274379e-07 0.0000000000000000e+00  1.8381547852757276e-05 -3.7234268132710840e-09 0.0000000000000000e+00  1.2685270160314311e-19 -3.5679588182589006e-23 0.0000000000000000e+00  1.8366984431434238e-05 -5.8384647377330609e-11 0.0000000000000000e+00  1.5075993939364706e-19 2.1771547161595048e-21 0.0000000000000000e+00  1.8397967120244721e-05 -1.4009763140301614e-08 0.0000000000000000e+00  8.8029052313320082e-06 7.2121595530505140e-06 0.0000000000000000e+00  -3.6506036482629782e-19 -3.4304692863149528e-04 0.0000000000000000e+00  -5.9506605808705858e-19 3.4304692863149555e-04 0.0000000000000000e+00  9.0988769441587167e-06 -8.9180288231435416e-06 0.0000000000000000e+00  1.8360260367567774e-05 -2.4877839322177565e-08 0.0000000000000000e+00  1.8375618412532520e-05 1.6511288189753645e-08 0.0000000000000000e+00  1.2808628600791322e-19 1.0838301484593950e-21 0.0000000000000000e+00  1.8374047756538887e-05 -5.6727106380168323e-09 0.0000000000000000e+00  1.3027089409385778e-19 8.3436333433503368e-22 0.0000000000000000e+00  1.8377595069628082e-05 -5.8350311917758236e-09 0.0000000000000000e+00  1.3971038542191787e-19 2.8532317169702441e-22 0.0000000000000000e+00  1.2002994268908068e-19 -1.8776647467656699e-23 0.0000000000000000e+00  1.3413669915988842e-19 7.7738486968096096e-22 0.0000000000000000e+00  1.8383526776874366e-05 5.6893597343634891e-09 0.0000000000000000e+00  1.2998571456076405e-19 4.2684315853547798e-22 0.0000000000000000e+00  1.3017102948361554e-19 3.4868999304875356e-22 0.0000000000000000e+00  1.8371919031112609e-05 1.4415250184827301e-09 0.0000000000000000e+00  1.8389833740456211e-05 2.9338226872073823e-09 0.0000000000000000e+00  1.2882635132633777e-19 6.4627616638827785e-23 0.0000000000000000e+00  1.8386322577872217e-05 1.2614107851168732e-08 0.0000000000000000e+00  1.4516479704141323e-19 1.5192023732711849e-21 0.0000000000000000e+00  1.8394818671266290e-05 -2.3357548315328315e-08 0.0000000000000000e+00  1.1300877022050258e-19 3.4047273275375823e-23 0.0000000000000000e+00  1.8356121543629309e-05 1.2412722390036910e-08 0.0000000000000000e+00  1.3972617080067253e-19 3.2278811298878482e-23 0.0000000000000000e+00  1.2042600026564103e-19 1.2050519666463815e-21 0.0000000000000000e+00  1.4088802286406482e-19 2.2589679913015379e-21 0.0000000000000000e+00  1.4049805547743867e-19 -8.8918844175115619e-22 0.0000000000000000e+00  1.8387456784199744e-05 1.3922058162963844e-08 0.0000000000000000e+00  1.8391767019291374e-05 2.1741556481785224e-08 0.0000000000000000e+00  1.8386397155984332e-05 2.2775793172309382e-09 0.0000000000000000e+00  -3.7616131253320193e-06 -2.0173028538085877e-05 0.0000000000000000e+00  2.8801883594872520e-20 -2.7002257034647199e-19 0.0000000000000000e+00  1.8448937356678866e-05 -1.5309505480637962e-07 0.0000000000000000e+00  1.8411809076442782e-05 -5.0324286438560791e-08 0.0000000000000000e+00  1.8170860696094874e-05 5.0741624993295206e-08 0.0000000000000000e+00  1.8342617701032852e-05 -1.9711341422378055e-08 0.0000000000000000e+00  3.0944999376027150e-06 1.6478520473555077e-05 0.0000000000000000e+00  1.8358557618108639e-05 -2.9118152819645803e-11 0.0000000000000000e+00  1.8397595155014766e-05 2.4888948923697508e-11 0.0000000000000000e+00  5.7084321295359617e-20 1.5511454898427212e-19 0.0000000000000000e+00  -3.3305734173093029e-06 1.7531663309867026e-05 0.0000000000000000e+00  1.8356022552499458e-05 -1.2597471796311019e-08 0.0000000000000000e+00  3.0739516282003339e-06 -1.8879225736630468e-05 0.0000000000000000e+00  1.8387670023894235e-05 -3.0331243307395322e-09 0.0000000000000000e+00  1.1527488621242887e-19 -1.0183681695275453e-21 0.0000000000000000e+00  1.8352053774655542e-05 -5.6129412798435032e-08 0.0000000000000000e+00  1.8369408805783004e-05 3.0282677287301536e-10 0.0000000000000000e+00  1.8361477657449512e-05 8.4806649098222070e-08 0.0000000000000000e+00  1.8392192325775825e-05 -4.0850009508329760e-09 0.0000000000000000e+00  1.8384246919448649e-05 -2.1724756361855032e-08 0.0000000000000000e+00  1.8339960218278938e-05 -3.3673103949503682e-06 0.0000000000000000e+00  1.3409916921621097e-19 -1.8517311178288115e-21 0.0000000000000000e+00  1.8350781085507781e-05 -6.4957581856749091e-09 0.0000000000000000e+00  1.7007209563389305e-21 -1.7260234418363561e-19 0.0000000000000000e+00  1.4316681148270229e-21 1.5029496091323107e-19 0.0000000000000000e+00  -4.1161080544722992e-05 -4.5905947496978725e-05 0.0000000000000000e+00  -3.3589392407842080e-05 3.7842643179526180e-05 0.0000000000000000e+00  1.2344738327281837e-19 3.7927127936698063e-23 0.0000000000000000e+00  1.4267271888876958e-19 2.0602633086836477e-21 0.0000000000000000e+00  1.2002768618955981e-19 2.3920778897488360e-22 0.0000000000000000e+00  1.8351674581594033e-05 2.2361644782703258e-08 0.0000000000000000e+00  1.8359338583913136e-05 1.3524959620112537e-08 0.0000000000000000e+00  1.6701230065732949e-05 -4.5046302579029749e-21 0.0000000000000000e+00  1.2191757832945065e-19 -4.2164225245998554e-21 0.0000000000000000e+00  1.8359140182628169e-05 5.2549188738650378e-09 0.0000000000000000e+00  1.3335498234760816e-19 8.5623012027775313e-22 0.0000000000000000e+00  1.2424492792385288e-19 -2.7609983983078415e-22 0.0000000000000000e+00  1.8377069214088420e-05 -2.3216569352354571e-09 0.0000000000000000e+00  1.8397061803672518e-05 1.9545998700712466e-09 0.0000000000000000e+00  1.6682170692342456e-05 5.7791616918903391e-21 0.0000000000000000e+00  1.3206253338199841e-19 -1.6368942260356826e-21 0.0000000000000000e+00  6.8370686865533356e-06 -6.3555728320856942e-07 0.0000000000000000e+00  1.3325663714580951e-19 4.3286489862331215e-21 0.0000000000000000e+00  1.4991617516833252e-19 -6.1860768295915706e-21 0.0000000000000000e+00  1.8377882173806031e-05 -8.2440173573005197e-09 0.0000000000000000e+00  1.8315669284838403e-05 -2.0501055170207069e-08 0.0000000000000000e+00  1.8402075048878893e-05 1.2527778427429019e-10 0.0000000000000000e+00  1.8367365723281482e-05 1.1564218834735902e-08 0.0000000000000000e+00  1.3418805566124259e-19 1.4967424879740547e-22 0.0000000000000000e+00  1.5331485255469839e-19 4.3089714699672496e-22 0.0000000000000000e+00  1.2578757223883718e-19 -2.4149114432393945e-21 0.0000000000000000e+00  1.2055095935594422e-19 2.3660784392304651e-21 0.0000000000000000e+00  1.8363892235931405e-05 -2.9754366032159363e-09 0.0000000000000000e+00  1.8366144961418408e-05 7.0432568017101502e-09 0.0000000000000000e+00  1.8361880737357105e-05 -6.0919208292700131e-09 0.0000000000000000e+00  1.6667892635810555e-05 4.9887547711889306e-06 0.0000000000000000e+00  1.8387456208046477e-05 -5.2867981019368465e-09 0.0000000000000000e+00  1.8357455046626299e-05 5.9664513195301845e-09 0.0000000000000000e+00  1.8382949525173147e-05 5.4286295430630594e-09 0.0000000000000000e+00  1.8280628388697567e-05 2.0560063321803269e-08 0.0000000000000000e+00  1.8374584269797403e-05 1.4898176324976279e-09 0.0000000000000000e+00  1.8316458578768202e-05 5.0375928146967647e-09 0.0000000000000000e+00  1.8358606038790809e-05 3.7712006455724882e-09 0.0000000000000000e+00  1.8280528245368598e-05 1.3525902402359161e-09 0.0000000000000000e+00  1.8380323311285096e-05 -1.7638838802462201e-08 0.0000000000000000e+00  1.8325503829459972e-05 1.0796527907170184e-08 0.0000000000000000e+00  1.8308565415446158e-05 -6.7797395328175320e-09 0.0000000000000000e+00  1.8350705762641680e-05 7.5560664356689111e-09 0.0000000000000000e+00  1.8376617934724953e-05 2.2958108601576432e-08 0.0000000000000000e+00  1.8252768820480838e-05 -2.1249618186500696e-08 0.0000000000000000e+00  1.8251143782923497e-05 1.9864605525869052e-08 0.0000000000000000e+00  1.8281095700798719e-05 -2.8111927788824133e-09 0.0000000000000000e+00  1.8244255321150727e-05 -1.2954955194947328e-08 0.0000000000000000e+00  1.8289990765172748e-05 -1.1158634723084171e-08 0.0000000000000000e+00  1.8379184683126978e-05 -5.0064825295923478e-09 0.0000000000000000e+00  1.8389734428745839e-05 -3.3981563462580916e-09 0.0000000000000000e+00  1.8397803833624480e-05 4.3177018827156999e-09 0.0000000000000000e+00  1.8308573959071397e-05 -1.7351386166224282e-08 0.0000000000000000e+00  1.6847663684937228e-05 -1.0163132431239518e-06 0.0000000000000000e+00  1.8812678119592016e-05 -5.5370421674118859e-07 0.0000000000000000e+00  1.8269639323543339e-05 -1.7381644438427190e-07 0.0000000000000000e+00  1.8385816549405902e-05 -5.6091449490235479e-09 0.0000000000000000e+00  1.8395607289465866e-05 -1.2346433523703943e-08 0.0000000000000000e+00  1.8396080176929479e-05 -2.9124635608474447e-09 0.0000000000000000e+00  1.2058267827179535e-20 -4.3227752588002105e-20 0.0000000000000000e+00  1.6821797238639134e-20 3.7639185259897664e-20 0.0000000000000000e+00  1.8386255068081656e-05 8.8508776072469277e-09 0.0000000000000000e+00  1.8382199102951029e-05 -2.8225009145242009e-08 0.0000000000000000e+00  1.8398904452716449e-05 3.5659892767888721e-09 0.0000000000000000e+00  1.8256385104771351e-05 8.3192156435657921e-09 0.0000000000000000e+00  1.8292226894190102e-05 9.8147464254577844e-09 0.0000000000000000e+00  1.8392662186537462e-05 -2.4736744771289562e-07 0.0000000000000000e+00  1.8159131520904892e-05 -1.1415187678028204e-06 0.0000000000000000e+00  1.7916626326190448e-05 1.9631221682144842e-08 0.0000000000000000e+00  1.8267042623446828e-05 1.5935787128232751e-08 0.0000000000000000e+00  1.8271487534410753e-05 -1.5982590442914530e-09 0.0000000000000000e+00  1.7563968078023429e-05 9.0231274065251514e-09 0.0000000000000000e+00  1.8328742832053293e-05 2.4501217527140820e-07 0.0000000000000000e+00  1.8381784716146879e-05 -2.5506701467863383e-09 0.0000000000000000e+00  1.8201028726789099e-05 2.1614245174695992e-08 0.0000000000000000e+00  1.6614809674771451e-07 -2.1573536745369279e-05 0.0000000000000000e+00  1.8384920645815316e-05 1.1367005574430023e-08 0.0000000000000000e+00  2.2649403820077494e-07 1.8797319032637822e-05 0.0000000000000000e+00  -7.9472787551356479e-19 -8.0468228934867878e-19 0.0000000000000000e+00  -1.5090471120482967e-20 1.1255449136480529e-19 0.0000000000000000e+00  7.5468566576678160e-21 1.1981036818707609e-19 0.0000000000000000e+00  6.7682714580601963e-21 -1.2781190954684096e-19 0.0000000000000000e+00  -1.4860664059885537e-20 -1.3135579980206518e-19 0.0000000000000000e+00  -7.8317603906316537e-19 6.7438166739573888e-19 0.0000000000000000e+00  1.8323781647224069e-05 -1.2721501826878481e-08 0.0000000000000000e+00  1.7675482751646705e-05 -5.5953895362811187e-10 0.0000000000000000e+00  1.7673716759757807e-05 -4.1700261673781209e-08 0.0000000000000000e+00  1.7656433131035990e-05 6.0170141764029945e-09 0.0000000000000000e+00  1.7665462588938056e-05 -2.5057020619011198e-09 0.0000000000000000e+00  1.7650436978993153e-05 1.9640255152380315e-08 0.0000000000000000e+00  1.8228893189075780e-05 2.4169093331330453e-08 0.0000000000000000e+00  1.8307779398908368e-05 2.6651805059542531e-07 0.0000000000000000e+00  1.8234824047557847e-05 -3.1147930908798837e-09 0.0000000000000000e+00  1.8362414641237057e-05 -9.9455322793042422e-09 0.0000000000000000e+00  1.8389030694872591e-05 5.1692287960199518e-09 0.0000000000000000e+00  1.8395001909730064e-05 -4.0477774673325708e-09 0.0000000000000000e+00  -3.2186967034377045e-06 2.7029098453724548e-05 0.0000000000000000e+00  -6.5891766290102654e-06 -2.8068990948661747e-05 0.0000000000000000e+00  1.7707591754021050e-05 -6.0281513839731302e-08 0.0000000000000000e+00  1.8197526109473239e-05 2.2798468773207912e-08 0.0000000000000000e+00  1.8397043750390806e-05 -3.6942237320525647e-09 0.0000000000000000e+00  1.8393095261115942e-05 -4.1969154449067551e-09 0.0000000000000000e+00  1.2821420228480639e-19 1.4678646225532167e-21 0.0000000000000000e+00  1.6276148058173009e-05 1.2038873882634300e-06 0.0000000000000000e+00  7.5139356613459235e-05 8.7407260637740921e-05 0.0000000000000000e+00  7.5958884098498749e-05 -9.3005764036767130e-05 0.0000000000000000e+00  1.8403854423398308e-05 -2.9526806564511721e-09 0.0000000000000000e+00  1.7523714887519070e-05 1.7604812749369460e-08 0.0000000000000000e+00  1.2811368365970193e-19 3.7285969854081979e-22 0.0000000000000000e+00  1.7603328920783735e-05 -2.8438686409527893e-08 0.0000000000000000e+00  1.8404032264233615e-05 3.2454879637068885e-09 0.0000000000000000e+00  1.8152929821853520e-05 1.4608398458452286e-06 0.0000000000000000e+00  1.8372427012131844e-05 7.4935595752022614e-10 0.0000000000000000e+00  1.4026695765871946e-19 -1.3005813542267140e-21 0.0000000000000000e+00  1.8394267103647902e-05 7.3852541345078232e-09 0.0000000000000000e+00  1.8387212043055513e-05 -8.1986130881981132e-09 0.0000000000000000e+00  1.8235818836420751e-05 -6.2451548129141062e-09 0.0000000000000000e+00  1.8285165932174622e-05 3.4920002171550857e-09 0.0000000000000000e+00  1.8239743092703472e-05 -1.3731416762206792e-08 0.0000000000000000e+00  1.2948137429959410e-19 1.0951529131281608e-21 0.0000000000000000e+00  1.8295875525418539e-05 -5.3431673225463716e-09 0.0000000000000000e+00  1.8396178628085943e-05 1.4648821671068723e-08 0.0000000000000000e+00  1.7696453496399665e-05 4.1386660124923956e-08 0.0000000000000000e+00  1.8393276422309570e-05 -7.9329773514245961e-10 0.0000000000000000e+00  1.8394409735902912e-05 -8.8850673158699575e-08 0.0000000000000000e+00  1.8379549119942345e-05 2.5550426010862249e-09 0.0000000000000000e+00  1.8381906419390909e-05 -4.3099352541940996e-09 0.0000000000000000e+00  1.7741195557819190e-05 -2.7820189996936499e-07 0.0000000000000000e+00  1.8283852856918972e-05 1.1120578986784133e-08 0.0000000000000000e+00  1.8276629314009147e-05 -1.6397095042653259e-08 0.0000000000000000e+00  1.8258378143424045e-05 -1.1776327958673963e-08 0.0000000000000000e+00  1.8291672447170780e-05 -2.9030703235675306e-08 0.0000000000000000e+00  1.8378335656175288e-05 5.7470543149725664e-09 0.0000000000000000e+00  1.3786150670941441e-19 -1.5734797703016968e-21 0.0000000000000000e+00  1.6995177929774669e-05 -9.8063507455958303e-06 0.0000000000000000e+00  1.0034258036606291e-05 -1.8467666379989327e-05 0.0000000000000000e+00  4.2809717760779485e-06 -1.3875369684238913e-05 0.0000000000000000e+00  1.3143025461024242e-05 -4.6807408207430234e-06 0.0000000000000000e+00  1.8398916654814491e-05 9.6333055969764422e-10 0.0000000000000000e+00  1.8383846916400176e-05 -9.7020458279245268e-09 0.0000000000000000e+00  1.8381570439582258e-05 1.5645671254897329e-09 0.0000000000000000e+00  1.8381158944431715e-05 -3.5072264254266686e-09 0.0000000000000000e+00  1.8357661261882613e-05 -3.7535433711706392e-08 0.0000000000000000e+00  1.8273342648746493e-05 4.0690920765233623e-08 0.0000000000000000e+00  1.4218641238537589e-19 2.4629292303745117e-22 0.0000000000000000e+00  1.8260354052201315e-05 2.5460994069805134e-08 0.0000000000000000e+00  1.8381787648063192e-05 -5.4428523851680499e-09 0.0000000000000000e+00  1.8381244421626075e-05 1.1637402139599065e-10 0.0000000000000000e+00  1.8256064352035876e-05 1.6368128553166314e-08 0.00000000