<?xml version="1.0"?>
<VTKFile type="UnstructuredGrid"  version="0.1"  >
<UnstructuredGrid>
<Piece  NumberOfPoints="1079" NumberOfCells="1944">
<Points>
<DataArray  type="Float64"  NumberOfComponents="3"  format="ascii">0.08500000000000001 0.02 0  0.005 0.02 0  0.005 0.03 0  0 0.03 0  0 0 0  0.005 0 0  0.005 0.01 0  0.08500000000000001 0.01 0  0 0.015 0  0 0.0075 0  0 0.0225 0  0.04500000000000001 0.02 0  0.04500000000000001 0.01 0  0.025 0.01 0  0.025 0.02 0  0.065 0.02 0  0.065 0.01 0  0.035 0.02 0  0.035 0.01 0  0.07500000000000001 0.02 0  0.07500000000000001 0.01 0  0.015 0.02 0  0.015 0.01 0  0.05500000000000001 0.01 0  0.05500000000000001 0.02 0  0.07000000000000001 0.01 0  0.07000000000000001 0.02 0  0.05 0.01 0  0.03 0.01 0  0.03 0.02 0  0.04000000000000001 0.01 0  0.01 0.01 0  0.02 0.02 0  0.06 0.015 0  0.08500000000000001 0.015 0  0.05 0.02 0  0.07250000000000001 0.015 0  0.04000000000000001 0.02 0  0.03750000000000001 0.015 0  0.0525 0.015 0  0.02 0.01 0  0.01 0.02 0  0.0275 0.015 0  0.0125 0.015 0  0.08000000000000002 0.01 0  0.08000000000000002 0.02 0  0.0325 0.014375 0  0.04291666666666667 0.015 0  0.065 0.015 0  0.005 0.005 0  0.005 0.015 0  0.02208333333333334 0.015 0  0.07791666666666668 0.015 0  0.005 0.025 0  0.06 0.01 0  0.06 0.02 0  0.01729166666666667 0.01572916666666667 0  0.04770833333333334 0.01427083333333334 0  0.06875000000000001 0.01625 0  0.008750000000000001 0.01625 0  0.05625000000000001 0.01625 0  0 0.00375 0  0 0.01875 0  0 0.01125 0  0 0.02625 0  0.08145833333333334 0.01354166666666667 0  0.0675 0.01 0  0.0075 0.0125 0  0.0625 0.0175 0  0.0575 0.0125 0  0.0625 0.0125 0  0.08207465277777778 0.01707465277777778 0  0.06767857142857144 0.01321428571428571 0  0.0175 0.01 0  0.01875 0.01291382575757576 0  0.0475 0.02 0  0.04564168086314595 0.01679860519591141 0  0.00296875 0.0125 0  0.0025 0.03 0  0.0025 0 0  0.00296875 0.0175 0  0.01521990740740741 0.0132349537037037 0  0.0497800925925926 0.0167650462962963 0  0.0325 0.02 0  0.03474264705882353 0.01674632352941176 0  0.03750000000000001 0.02 0  0.03025735294117647 0.01674632352941176 0  0.0275 0.02 0  0.0525 0.02 0  0.0125 0.01 0  0.04020833333333334 0.01322916666666667 0  0.03750000000000001 0.01 0  0.0225 0.02 0  0.02479166666666667 0.01677083333333333 0  0.07520833333333335 0.01322916666666667 0  0.07250000000000001 0.01 0  0.07520833333333335 0.01677083333333334 0  0.07250000000000001 0.02 0  0.04020833333333334 0.01677083333333333 0  0.0225 0.01 0  0.02375 0.01262152777777778 0  0.04250000000000001 0.02 0  0.04250000000000001 0.01 0  0.07750000000000001 0.01 0  0.07750000000000001 0.02 0  0.05036151960784314 0.01294424019607843 0  0.0705560064935065 0.01284699675324675 0  0.05458333333333334 0.01291666666666666 0  0.0021875 0.024375 0  0.005 0.0275 0  0.01125 0.0175 0  0.01463848039215686 0.01705575980392157 0  0.01 0.01375 0  0.03625 0.0125 0  0.0021875 0.009375 0  0.05375000000000001 0.0175 0  0.07125000000000001 0.0175 0  0.005 0.0025 0  0.0021875 0.005625 0  0.02655220103578155 0.01234889948210923 0  0.002187499999999999 0.020625 0  0.02979166666666667 0.01302083333333333 0  0.0525 0.01 0  0.07895833333333334 0.0125 0  0.01994277885235332 0.01704213007736944 0  0.07934656179076068 0.01733823814273861 0  0.04505722114764669 0.01295786992263056 0  0.06625 0.0175 0  0.006250000000000001 0.0175 0  0.05750000000000001 0.02 0  0.05875000000000001 0.0175 0  0.005 0.0225 0  0.005 0.0075 0  0.002375 0.027375 0  0.002375 0.002625000000000001 0  0.0475 0.01 0  0.0175 0.02 0  0.0325 0.01 0  0.03375 0.0121875 0  0.04261299435028249 0.01749205508474576 0  0.08500000000000001 0.0125 0  0.08250000000000002 0.01 0  0.02121963399965531 0.01224824108143494 0  0.0675 0.02 0  0.0125 0.02 0  0.02720152243589744 0.0175 0  0.03715165441176471 0.0175 0  0.08500000000000001 0.0175 0  0.0275 0.01 0  0.0025 0.0149560546875 0  0.0075 0.01 0  0.0075 0.02 0  0.06526785714285716 0.0125 0  0.01281031447005516 0.0125 0  0.0625 0.015 0  0.06 0.0125 0  0.05750000000000001 0.01 0  0.0625 0.02 0  0.0625 0.01 0  0.08250000000000002 0.02 0  0.04260103740101855 0.01252623201412851 0  0.02240052247582197 0.01750164767101344 0  0.07293583459427785 0.01238479732953041 0  0.005234374999999999 0.012265625 0  0.03528131980640358 0.01454684009679821 0  0.0325 0.01760027210036557 0  0.02532593822924343 0.01428227733767297 0  0.08009952069819683 0.01527145502895417 0  0.01987282359856536 0.01482587683689801 0  0.04828232595121382 0.01210233572595705 0  0.01671767404878618 0.01789766427404295 0  0.05125 0.01829007549029352 0  0.05247215456215357 0.01288882122882024 0  0.07338729919678716 0.01799385040160642 0  0.03838729919678716 0.01200614959839357 0  0.07717482110586968 0.01780301674207099 0  0.04771860040890012 0.01773306039388322 0  0.03125 0.01160380747126437 0  0.06875000000000001 0.01154265873015873 0  0.07625000000000001 0.01154065860215054 0  0.01625 0.01153997817696946 0  0.068125 0.018125 0  0.05437500000000001 0.015625 0  0.066875 0.015625 0  0.07039794950204951 0.01494384850614853 0  0.05687500000000001 0.018125 0  0.006875 0.015625 0  0.008749999999999999 0.01833333333333333 0  0.010625 0.015625 0  0.05625 0.01416666666666667 0  0.05812500000000001 0.015625 0  0.0449088595298192 0.01494528408816316 0  0 0.016875 0  0 0.013125 0  0.04962452342047931 0.01478673066448802 0  0.0153754765795207 0.01521326933551198 0  0.0771774565913315 0.01322498191305479 0  0.01857756431135545 0.01840228599899994 0  0.04642243568864456 0.01159771400100006 0  0.08125000000000002 0.01155637254901961 0  0.08317650804863432 0.0118234919513657 0  0.08288217288011697 0.01511353252923977 0  0.02837253504384828 0.0117177464035174 0  0.03896057962520807 0.01831163685754031 0  0.01125 0.0114244162490927 0  0.00935910490099115 0.0119067901980177 0  0.02946078431372549 0.01495404411764706 0  0.02875 0.0185829434466942 0  0.002968749999999999 0.0225 0  0.064375 0.016875 0  0.00296875 0.0075 0  0 0.001875 0  0 0.005625 0  0 0.009375 0  0 0.020625 0  0 0.024375 0  0 0.028125 0  0.06062500000000001 0.01812500000000001 0  0.008303571428571429 0.01446428571428572 0  0.01375 0.01865917058160413 0  0.05137790313978056 0.01143372888932909 0  0.04125000000000001 0.01131513063942604 0  0.04101690263896279 0.01844430285842771 0  0.02399563533148224 0.01844349395710867 0  0.08125000000000002 0.01868815426145731 0  0.05354684380692146 0.01145463537600848 0  0.01699195823639423 0.01315138909884649 0  0.07598357371794873 0.015 0  0.04098357371794872 0.015 0  0.003744047619047619 0.00375 0  0.003344630281690141 0.02580853873239437 0  0.04625 0.0187354532243972 0  0.06388392857142858 0.01138392857142858 0  0.06375 0.01375 0  0.05875 0.01375 0  0.06375 0.02 0  0.00622802734375 0.01372802734375 0  0.003630681818181818 0.001369318181818182 0  0.003630681818181818 0.02863068181818182 0  0.06125 0.01625 0  0.06125 0.01125 0  0.05625000000000001 0.01 0  0.05875 0.01125 0  0.06125 0.01375 0  0.08337864763241221 0.0183786476324122 0  0.05213634138653413 0.01674432930673294 0  0.04375000000000001 0.01 0  0.07424178685897437 0.01529258578431373 0  0.03924178685897436 0.01529258578431372 0  0.03410139294454583 0.01843406022904556 0  0.03089860705545417 0.01843406022904556 0  0.02094160484316717 0.01850229584291991 0  0.04375000000000001 0.02 0  0.04437042160883325 0.01820701498672512 0  0.04816311705429156 0.01600061344661149 0  0.07151224904251052 0.0114127410511319 0  0.04395528506193162 0.01639387970349481 0  0.0128750358694518 0.0167500179347259 0  0.02855808448399799 0.01642839899839741 0  0.02812690373330794 0.01340955081400569 0  0.08358500641945087 0.01351822349116885 0  0.05590277777777778 0.01173611111111111 0  0.06683110430364615 0.01164926404662283 0  0.02573206694914602 0.01842532451809762 0  0.01438126661842046 0.01166701193099454 0  0.02384283211216029 0.01526549696571563 0  0.03625 0.02 0  0.004609375000000001 0.0182421875 0  0.003398437500000001 0.01943359375 0  0.001728307845744682 0.01894718251329787 0  0.004377805359085963 0.01656966216675735 0  0.04649673309852075 0.0153889662370871 0  0.03615513600614297 0.01592654988586041 0  0.03316985071935832 0.01598763605018279 0  0.03110111603888768 0.01529816275177977 0  0.01370614113484869 0.0138804542047638 0  0.04930041102671841 0.01842260568883502 0  0.07875000000000001 0.02 0  0.0745395359848485 0.01165101111925709 0  0.03860755698543604 0.01373741558556884 0  0.02605038706571737 0.01573944002207753 0  0.07559826163500957 0.01841729376139847 0  0.04437500000000001 0.01149157931286774 0  0.06874116707361365 0.01454618473032123 0  0.003761917372881356 0.0239307468220339 0  0.003984374999999999 0.01125 0  0.003768503289473684 0.01392539576480263 0  0.001796875 0.0111328125 0  0.003761917372881356 0.008930746822033899 0  0.005 0.00625 0  0.003761917372881355 0.0210692531779661 0  0.06633928571428571 0.01410714285714285 0  0.006484375 0.01125 0  0.08364120589325512 0.01657288979763549 0  0.03576267476503373 0.0184116442851204 0  0.07370875846579374 0.0137848203678562 0  0.06964285714285715 0.01758928571428571 0  0.05520833333333334 0.01833333333333333 0  0.06491071428571429 0.01839285714285714 0  0.0510098951944636 0.01559941474766356 0  0.01786087179886325 0.0115702210443714 0  0.01972197383235524 0.01160576093166696 0  0.01804697593127788 0.01433503795474974 0  0.001644074528704677 0.01642892723865279 0  0.00125 0.03 0  0.001497685185185185 0.001267746913580247 0  0.07315451164202422 0.01643443118912983 0  0.001233906745910645 0.0140625 0  0.01162635071030191 0.01362229857939618 0  0.01528023503083844 0.01845923557506155 0  0.06625 0.02 0  0.07695012019230771 0.01624387078484555 0  0.03139091092855769 0.01320776147621796 0  0.03857339107781042 0.01675295051810485 0  0.001754993120977522 0.02590789105493891 0  0.002288757784711197 0.00412546923654445 0  0.07914382119690884 0.01404430049871201 0  0.001391810103286306 0.01257390899021902 0  0.0419501201923077 0.01614675005432421 0  0.001484375 0.007018229166666667 0  0.001484375 0.02201822916666666 0  0.048
[...]
<PointData  Vectors="velocity"> 
<DataArray  type="Float64"  Name="velocity"  NumberOfComponents="3" format="ascii">7.5750774634269552e-06 5.5543240058998196e-20 0.0000000000000000e+00  1.6217240779216260e-19 -1.7864024611101355e-19 0.0000000000000000e+00  6.5450665968258492e-18 -3.5938136638046495e-04 0.0000000000000000e+00  -7.5273435742325765e-18 -3.5938136638046436e-04 0.0000000000000000e+00  -7.2791893904666744e-18 3.5938136638046447e-04 0.0000000000000000e+00  6.5140473238551222e-18 3.5938136638046403e-04 0.0000000000000000e+00  1.5327480385692301e-19 1.3963644395857041e-19 0.0000000000000000e+00  7.7794341598623917e-06 -5.7622365969647802e-20 0.0000000000000000e+00  1.7173564787125201e-20 -8.3342299702225242e-22 0.0000000000000000e+00  -1.8627393655439764e-21 1.4234876827737968e-19 0.0000000000000000e+00  7.8809270055160310e-22 -1.5255795711612119e-19 0.0000000000000000e+00  1.4111779142153082e-19 -5.3302043863978555e-22 0.0000000000000000e+00  1.2523948455214737e-19 7.3551502224946102e-22 0.0000000000000000e+00  1.5205093635776802e-19 4.2934025556378687e-22 0.0000000000000000e+00  1.2634258045911882e-19 -4.9655075843871431e-22 0.0000000000000000e+00  1.3456812077953493e-19 5.1005128786676747e-22 0.0000000000000000e+00  1.3800538691426850e-19 2.0786504186399409e-22 0.0000000000000000e+00  1.1458890073934394e-19 -2.5550028868531515e-22 0.0000000000000000e+00  1.6121858162198694e-19 -1.7583045093209937e-22 0.0000000000000000e+00  1.4120393407286383e-19 8.6118653024071373e-22 0.0000000000000000e+00  1.3164658221902519e-19 5.3493245738244346e-22 0.0000000000000000e+00  1.1506697667428711e-19 -2.7730039426609641e-22 0.0000000000000000e+00  1.2248884248614242e-19 -3.1510939825446598e-22 0.0000000000000000e+00  1.3824353068565011e-19 -1.6147021569107094e-21 0.0000000000000000e+00  1.3073731848361610e-19 5.8306605960661517e-22 0.0000000000000000e+00  1.2361537965512684e-19 2.1083168845229601e-22 0.0000000000000000e+00  1.5511421596033312e-19 -5.1900088267977748e-22 0.0000000000000000e+00  1.4531403270545544e-19 4.5161745627127067e-22 0.0000000000000000e+00  1.4550236216743372e-19 8.4102275268318276e-23 0.0000000000000000e+00  1.1617282678765332e-19 -2.9326831762312871e-22 0.0000000000000000e+00  1.3074108556019021e-19 4.3928607558885441e-22 0.0000000000000000e+00  1.3601605802506636e-19 7.9035131581513755e-22 0.0000000000000000e+00  1.2450004460778821e-19 -2.5730160018415535e-22 0.0000000000000000e+00  1.9309417587404659e-05 -2.8193710498717306e-09 0.0000000000000000e+00  1.8544593589941297e-05 3.7383546362889037e-23 0.0000000000000000e+00  1.2347712044687893e-19 6.4157337941927487e-23 0.0000000000000000e+00  1.9309059286952576e-05 6.5097644792008920e-09 0.0000000000000000e+00  1.3664598584883007e-19 -1.2913280449631708e-21 0.0000000000000000e+00  1.9292988416722694e-05 -9.3906386689282939e-09 0.0000000000000000e+00  1.9289302061881029e-05 -1.0526630136921477e-09 0.0000000000000000e+00  1.2774126530422234e-19 5.1423621341000965e-23 0.0000000000000000e+00  1.4573474062148880e-19 -2.7030944131005312e-21 0.0000000000000000e+00  1.9291790425336419e-05 -4.8265903077599549e-10 0.0000000000000000e+00  1.9251555164832690e-05 -7.1754396998557218e-08 0.0000000000000000e+00  1.2347990819062141e-19 -4.5811082864530403e-22 0.0000000000000000e+00  1.3705669519556068e-19 2.4884826644559337e-21 0.0000000000000000e+00  1.9287327559134314e-05 5.6990076768002006e-10 0.0000000000000000e+00  1.9306880791897569e-05 -1.8814988925758272e-09 0.0000000000000000e+00  1.9301667424046027e-05 -1.6246276844284605e-09 0.0000000000000000e+00  -1.0151120736431641e-20 1.6799109610879029e-19 0.0000000000000000e+00  1.4586162804251030e-05 -7.3294170624020064e-07 0.0000000000000000e+00  1.9284298588069441e-05 4.8419256336397438e-09 0.0000000000000000e+00  1.9279243869015645e-05 9.9262984285088545e-10 0.0000000000000000e+00  -1.4258004856509985e-20 -2.0622224588966686e-19 0.0000000000000000e+00  1.2084591761516999e-19 3.3700137871041935e-22 0.0000000000000000e+00  1.3898786471656506e-19 1.7439035281096314e-21 0.0000000000000000e+00  1.9293221135209346e-05 -6.2537014165818744e-09 0.0000000000000000e+00  1.9299539963969844e-05 5.1041658203927497e-09 0.0000000000000000e+00  1.9301817373749455e-05 -4.9218125168210858e-09 0.0000000000000000e+00  1.9001180927344595e-05 -6.0423316957329055e-07 0.0000000000000000e+00  1.9288098135861964e-05 -1.4515295828914722e-08 0.0000000000000000e+00  -8.7812571498239809e-20 2.9123725541095416e-20 0.0000000000000000e+00  7.6119031765985055e-21 -7.2799555192731572e-20 0.0000000000000000e+00  1.1375187758794918e-20 8.4089995584002941e-20 0.0000000000000000e+00  -9.7246015182583050e-20 1.9735220728230088e-20 0.0000000000000000e+00  1.9101944629900328e-05 -1.8463031036161292e-07 0.0000000000000000e+00  1.1328594174006991e-19 -3.5380478860925370e-22 0.0000000000000000e+00  1.9035172279588527e-05 1.1071191666873541e-06 0.0000000000000000e+00  1.9265873642777282e-05 5.7646953292367075e-10 0.0000000000000000e+00  1.9274498723312121e-05 1.6152270268041104e-09 0.0000000000000000e+00  1.9291756712688901e-05 -8.2992523888198299e-09 0.0000000000000000e+00  1.9081103522150727e-05 3.5299920699430660e-07 0.0000000000000000e+00  1.9289622552986360e-05 -3.9072462287022563e-09 0.0000000000000000e+00  1.2328220135101237e-19 -2.7450547784330443e-23 0.0000000000000000e+00  1.9274354719917202e-05 -4.3311001266156193e-11 0.0000000000000000e+00  1.5338947322028045e-19 2.3064058905806117e-21 0.0000000000000000e+00  1.9306853428872332e-05 -1.4701366770167850e-08 0.0000000000000000e+00  9.2384083036290902e-06 7.5711624868914388e-06 0.0000000000000000e+00  -4.3320075827686334e-19 -3.5938136638046609e-04 0.0000000000000000e+00  -6.2451967552146411e-19 3.5938136638046631e-04 0.0000000000000000e+00  9.5478372371203411e-06 -9.3559336768164519e-06 0.0000000000000000e+00  1.9267327525398598e-05 -2.6042705860842389e-08 0.0000000000000000e+00  1.9283399721669076e-05 1.7326638226214198e-08 0.0000000000000000e+00  1.2990752938956813e-19 1.1581430307812526e-21 0.0000000000000000e+00  1.9281752018445882e-05 -5.9532460656836235e-09 0.0000000000000000e+00  1.3787236496025959e-19 8.5286145581220098e-22 0.0000000000000000e+00  1.9285474679841843e-05 -6.1229117280404777e-09 0.0000000000000000e+00  1.4651427873146763e-19 2.8976828468567564e-22 0.0000000000000000e+00  1.3506784028058700e-19 -2.2036370767281404e-23 0.0000000000000000e+00  1.4334603899442130e-19 7.8320625588789057e-22 0.0000000000000000e+00  1.9291699293444716e-05 5.9705254007472297e-09 0.0000000000000000e+00  1.3423949074869895e-19 4.5168535735818829e-22 0.0000000000000000e+00  1.4399018020939178e-19 3.8158204389140025e-22 0.0000000000000000e+00  1.9279516551429088e-05 1.5150838002305630e-09 0.0000000000000000e+00  1.9298317662456161e-05 3.0790577968336660e-09 0.0000000000000000e+00  1.3707731176758254e-19 3.7082089781097323e-23 0.0000000000000000e+00  1.9294633668476603e-05 1.3237144500852336e-08 0.0000000000000000e+00  1.4867684858273776e-19 1.5452969619530639e-21 0.0000000000000000e+00  1.9303548963514550e-05 -2.4511925968003871e-08 0.0000000000000000e+00  1.2563209029832467e-19 4.2265580617707916e-23 0.0000000000000000e+00  1.9262944434105339e-05 1.3028247362276692e-08 0.0000000000000000e+00  1.4498468260499893e-19 -1.7606624344842807e-23 0.0000000000000000e+00  1.2576136610108676e-19 1.1557877910804021e-21 0.0000000000000000e+00  1.3880587687357261e-19 2.2896187949086826e-21 0.0000000000000000e+00  1.4591484797777366e-19 -9.2737444845212602e-22 0.0000000000000000e+00  1.9295822956741226e-05 1.4609379819838156e-08 0.0000000000000000e+00  1.9300346869226411e-05 2.2815489733826272e-08 0.0000000000000000e+00  1.9294711348619815e-05 2.3906830390831908e-09 0.0000000000000000e+00  -3.9411556233678318e-06 -2.1167100636692358e-05 0.0000000000000000e+00  2.7570698029652866e-20 -2.8259638037424716e-19 0.0000000000000000e+00  1.9360122577263563e-05 -1.6045479678396967e-07 0.0000000000000000e+00  1.9321320127711364e-05 -5.2738521124400933e-08 0.0000000000000000e+00  1.9068711241696114e-05 5.3640670681631028e-08 0.0000000000000000e+00  1.9248772523898529e-05 -2.0686150158265723e-08 0.0000000000000000e+00  3.2480477922918861e-06 1.7296372370333260e-05 0.0000000000000000e+00  1.9265495444658260e-05 -3.0323350433339870e-11 0.0000000000000000e+00  1.9306462499003398e-05 2.8616933951625238e-11 0.0000000000000000e+00  5.6561854625876662e-20 1.6409323545242358e-19 0.0000000000000000e+00  -3.4904321128600164e-06 1.8402704809990255e-05 0.0000000000000000e+00  1.9262836121586335e-05 -1.3220932448711247e-08 0.0000000000000000e+00  3.2259065517484265e-06 -1.9808232185803039e-05 0.0000000000000000e+00  1.9296047612584207e-05 -3.1811766106437781e-09 0.0000000000000000e+00  1.2373440339906629e-19 -1.0703973028309065e-21 0.0000000000000000e+00  1.9258677806876511e-05 -5.8908000606980674e-08 0.0000000000000000e+00  1.9276874362347417e-05 3.2973609823022634e-10 0.0000000000000000e+00  1.9268560492302567e-05 8.8999549232481303e-08 0.0000000000000000e+00  1.9300792936508020e-05 -4.2862551931158462e-09 0.0000000000000000e+00  1.9292454413450208e-05 -2.2798543901019966e-08 0.0000000000000000e+00  1.9245075353424140e-05 -3.5324594357244258e-06 0.0000000000000000e+00  1.4233398897896553e-19 -1.9101028893018984e-21 0.0000000000000000e+00  1.9257333203502318e-05 -6.8130564550979813e-09 0.0000000000000000e+00  1.8844291220013762e-21 -1.7357202027455491e-19 0.0000000000000000e+00  1.4472362661070933e-21 1.6266059831083051e-19 0.0000000000000000e+00  -4.3126812450312396e-05 -4.8152042322325585e-05 0.0000000000000000e+00  -3.5201124292865433e-05 3.9703633311149395e-05 0.0000000000000000e+00  1.3361907777469853e-19 5.6890691905047097e-23 0.0000000000000000e+00  1.5194974313700699e-19 2.1834050886374803e-21 0.0000000000000000e+00  1.2158073860445717e-19 2.2414598600490275e-22 0.0000000000000000e+00  1.9258272515934566e-05 2.3465686971487272e-08 0.0000000000000000e+00  1.9266314367550795e-05 1.4195103183482176e-08 0.0000000000000000e+00  1.7526288366702615e-05 -4.7842830877455446e-21 0.0000000000000000e+00  1.2752884762494837e-19 -4.2483047365060929e-21 0.0000000000000000e+00  1.9266115451486107e-05 5.5203262579122668e-09 0.0000000000000000e+00  1.3722168586848642e-19 9.5505023278189301e-22 0.0000000000000000e+00  1.2700592632216072e-19 -2.8041389982814013e-22 0.0000000000000000e+00  1.9284921136462195e-05 -2.4349633123945449e-09 0.0000000000000000e+00  1.9305903844717711e-05 2.0501174464325879e-09 0.0000000000000000e+00  1.7506288342989389e-05 5.6071938507430161e-21 0.0000000000000000e+00  1.4106412497086846e-19 -1.7021209588109550e-21 0.0000000000000000e+00  7.1748474076929780e-06 -6.6447747942436752e-07 0.0000000000000000e+00  1.3588670235263471e-19 4.5546702149446612e-21 0.0000000000000000e+00  1.5831615811971074e-19 -6.2717338553575126e-21 0.0000000000000000e+00  1.9285775608430884e-05 -8.6520670378071983e-09 0.0000000000000000e+00  1.9220614482977036e-05 -2.1402750147213790e-08 0.0000000000000000e+00  1.9311163799560987e-05 1.3140196339509070e-10 0.0000000000000000e+00  1.9274740799114545e-05 1.2133870530025597e-08 0.0000000000000000e+00  1.3687489095672771e-19 1.3980324169603612e-22 0.0000000000000000e+00  1.5478198033034142e-19 3.7036379883176523e-22 0.0000000000000000e+00  1.3164812958178299e-19 -2.5723692529488762e-21 0.0000000000000000e+00  1.2540356797751332e-19 3.0051659503660179e-21 0.0000000000000000e+00  1.9271091447918657e-05 -3.1237166428676023e-09 0.0000000000000000e+00  1.9273453486588765e-05 7.3968438413102938e-09 0.0000000000000000e+00  1.9268981974429589e-05 -6.3945120449790628e-09 0.0000000000000000e+00  1.7492525092974586e-05 5.2369172533940419e-06 0.0000000000000000e+00  1.9295823006545314e-05 -5.5480215630564584e-09 0.0000000000000000e+00  1.9264341296796658e-05 6.2627775657722339e-09 0.0000000000000000e+00  1.9291094319057121e-05 5.6992045723298524e-09 0.0000000000000000e+00  1.9183713206167639e-05 2.1576197101726983e-08 0.0000000000000000e+00  1.9282315547462664e-05 1.5797063589174806e-09 0.0000000000000000e+00  1.9221319189455291e-05 5.2856324112735821e-09 0.0000000000000000e+00  1.9265509833751134e-05 3.9870261212657726e-09 0.0000000000000000e+00  1.9183613959933744e-05 1.4202042347811560e-09 0.0000000000000000e+00  1.9288337923303904e-05 -1.8510073130822302e-08 0.0000000000000000e+00  1.9230811502502847e-05 1.1332705291075495e-08 0.0000000000000000e+00  1.9213036016354227e-05 -7.1153345126373472e-09 0.0000000000000000e+00  1.9257258525157173e-05 7.9318362248775614e-09 0.0000000000000000e+00  1.9284450071115661e-05 2.4095006976111293e-08 0.0000000000000000e+00  1.9154483080660946e-05 -2.2299349545023478e-08 0.0000000000000000e+00  1.9152774755617360e-05 2.0844925661730310e-08 0.0000000000000000e+00  1.9184207037819253e-05 -2.9484707033215062e-09 0.0000000000000000e+00  1.9145597211691250e-05 -1.3573835798510357e-08 0.0000000000000000e+00  1.9193544002603497e-05 -1.1708290184065535e-08 0.0000000000000000e+00  1.9287142883706731e-05 -5.2540086587322658e-09 0.0000000000000000e+00  1.9298213779423807e-05 -3.5661449040622635e-09 0.0000000000000000e+00  1.9306681803984535e-05 4.5311502771914468e-09 0.0000000000000000e+00  1.9213040987445768e-05 -1.8209160910182833e-08 0.0000000000000000e+00  1.7679788695893403e-05 -1.0653824430021662e-06 0.0000000000000000e+00  1.9741446367897457e-05 -5.8072710024223920e-07 0.0000000000000000e+00  1.9172120767266252e-05 -1.8205237687413597e-07 0.0000000000000000e+00  1.9294102433011395e-05 -5.8863446069306332e-09 0.0000000000000000e+00  1.9304376938578088e-05 -1.2956353279053521e-08 0.0000000000000000e+00  1.9304872976403913e-05 -3.0562142744617940e-09 0.0000000000000000e+00  1.2589134964225175e-20 -4.8991452933069053e-20 0.0000000000000000e+00  1.7423765463952488e-20 4.3518893771476627e-20 0.0000000000000000e+00  1.9294562232894866e-05 9.2880440482657829e-09 0.0000000000000000e+00  1.9290301077536275e-05 -2.9547472980820195e-08 0.0000000000000000e+00  1.9307835942007771e-05 3.7412820548523746e-09 0.0000000000000000e+00  1.9158252772358070e-05 8.7401474246794182e-09 0.0000000000000000e+00  1.9195890302216354e-05 1.0297385531645962e-08 0.0000000000000000e+00  1.9301285485422910e-05 -2.5959620929889139e-07 0.0000000000000000e+00  1.9056200810497877e-05 -1.1979228862446485e-06 0.0000000000000000e+00  1.8801715774541734e-05 2.0602004471490927e-08 0.0000000000000000e+00  1.9169464476016231e-05 1.6722796434541069e-08 0.0000000000000000e+00  1.9174126062978686e-05 -1.6788454122498296e-09 0.0000000000000000e+00  1.8431910364743571e-05 9.5595165470909098e-09 0.0000000000000000e+00  1.9234681407339854e-05 2.5738571447854574e-07 0.0000000000000000e+00  1.9289871231552052e-05 -2.6759523846578924e-09 0.0000000000000000e+00  1.9100186479247656e-05 2.2683240578467442e-08 0.0000000000000000e+00  1.7584575848211357e-07 -2.2634735785392375e-05 0.0000000000000000e+00  1.9293161444140720e-05 1.1928970135016235e-08 0.0000000000000000e+00  2.3894568475849452e-07 1.9729569652420131e-05 0.0000000000000000e+00  -7.6036686520884816e-19 -8.2903927995432024e-19 0.0000000000000000e+00  -1.5317395498234592e-20 1.1482373514232152e-19 0.0000000000000000e+00  7.7383586695404752e-21 1.2868935197842744e-19 0.0000000000000000e+00  7.2659106510906215e-21 -1.3624339336487736e-19 0.0000000000000000e+00  -1.5276346970651566e-20 -1.4382628712504605e-19 0.0000000000000000e+00  -9.1446355544404596e-19 7.4694426013152638e-19 0.0000000000000000e+00  1.9229002982258915e-05 -1.3349703882839384e-08 0.0000000000000000e+00  1.8548817450281733e-05 1.4038474230330097e-10 0.0000000000000000e+00  1.8546705785122791e-05 -4.3708443037711663e-08 0.0000000000000000e+00  1.8528688230488681e-05 6.3013335273877500e-09 0.0000000000000000e+00  1.8538162803588649e-05 -2.6343792464280057e-09 0.0000000000000000e+00  1.8522388273821542e-05 2.0623097220238800e-08 0.0000000000000000e+00  1.9129420408316340e-05 2.5364776868327349e-08 0.0000000000000000e+00  1.9212214075110125e-05 2.7968822767675959e-07 0.0000000000000000e+00  1.9135649343911200e-05 -3.2643746536082406e-09 0.0000000000000000e+00  1.9269568447758497e-05 -1.0401658462998414e-08 0.0000000000000000e+00  1.9297474797652205e-05 5.4244556983837172e-09 0.0000000000000000e+00  1.9303741568155042e-05 -4.2477185003649933e-09 0.0000000000000000e+00  -3.3706146279336503e-06 2.8355294822418139e-05 0.0000000000000000e+00  -6.9009351818970722e-06 -2.9440661412352018e-05 0.0000000000000000e+00  1.8582355051275184e-05 -6.3259984924114686e-08 0.0000000000000000e+00  1.9096507673746512e-05 2.3927445593890950e-08 0.0000000000000000e+00  1.9305883947458486e-05 -3.8767370580554871e-09 0.0000000000000000e+00  1.9301740903385014e-05 -4.4040482392515586e-09 0.0000000000000000e+00  1.4112811332168025e-19 1.5928517635839455e-21 0.0000000000000000e+00  1.7080687600971054e-05 1.2646726690931296e-06 0.0000000000000000e+00  7.8819450042737430e-05 9.1657725319718641e-05 0.0000000000000000e+00  7.9657276652474719e-05 -9.7514909878918332e-05 0.0000000000000000e+00  1.9313030985588213e-05 -3.0982365041701094e-09 0.0000000000000000e+00  1.8389393240175824e-05 1.8471140529921016e-08 0.0000000000000000e+00  1.3017485263909354e-19 3.9139474808817673e-22 0.0000000000000000e+00  1.8472960210768833e-05 -2.9851485591651236e-08 0.0000000000000000e+00  1.9313218032711436e-05 3.4057282512302304e-09 0.0000000000000000e+00  1.9049715394182468e-05 1.5330021173225712e-06 0.0000000000000000e+00  1.9280051184977364e-05 7.8617379145544850e-10 0.0000000000000000e+00  1.3956151806996209e-19 -1.3084421278317026e-21 0.0000000000000000e+00  1.9302970094746086e-05 7.7500595564145423e-09 0.0000000000000000e+00  1.9295566804146916e-05 -8.6035791600734828e-09 0.0000000000000000e+00  1.9136694034890313e-05 -6.5553208475847760e-09 0.0000000000000000e+00  1.9188479104857245e-05 3.6648521104947259e-09 0.0000000000000000e+00  1.9140801833016525e-05 -1.4403708379937215e-08 0.0000000000000000e+00  1.3317845801190304e-19 1.1096321980480667e-21 0.0000000000000000e+00  1.9199716046013349e-05 -5.6085531658912635e-09 0.0000000000000000e+00  1.9304976022384851e-05 1.5372681577606304e-08 0.0000000000000000e+00  1.8570685395008147e-05 4.3422365772955453e-08 0.0000000000000000e+00  1.9301930776187357e-05 -8.3235031291878843e-10 0.0000000000000000e+00  1.9303028031712075e-05 -9.3097661707751183e-08 0.0000000000000000e+00  1.9287524855331065e-05 2.6821327634957637e-09 0.0000000000000000e+00  1.9289999291968629e-05 -4.5222468631209391e-09 0.0000000000000000e+00  1.8617618676027534e-05 -2.9196228082550914e-07 0.0000000000000000e+00  1.9187103155208253e-05 1.1667982716875105e-08 0.0000000000000000e+00  1.9179519520149316e-05 -1.7209521850251900e-08 0.0000000000000000e+00  1.9160367897403127e-05 -1.2354892047640500e-08 0.0000000000000000e+00  1.9195390795697999e-05 -3.0418325435240127e-08 0.0000000000000000e+00  1.9286251507513090e-05 6.0351781861480100e-09 0.0000000000000000e+00  1.4622942820922713e-19 -1.6788959688833217e-21 0.0000000000000000e+00  1.7833416261788585e-05 -1.0288578093944197e-05 0.0000000000000000e+00  1.0528994048777828e-05 -1.9376310571965676e-05 0.0000000000000000e+00  4.4921997697624807e-06 -1.4557665606066977e-05 0.0000000000000000e+00  1.3791800009562857e-05 -4.9099300361317343e-06 0.0000000000000000e+00  1.9307849539197490e-05 1.0111434874663116e-09 0.0000000000000000e+00  1.9292035442248228e-05 -1.0181388294927126e-08 0.0000000000000000e+00  1.9289646360086776e-05 1.6420133612574592e-09 0.0000000000000000e+00  1.9289214587968940e-05 -3.6799895084450422e-09 0.0000000000000000e+00  1.9264603209116050e-05 -3.9272455361170387e-08 0.0000000000000000e+00  1.9176067830041460e-05 4.2699784533891037e-08 0.0000000000000000e+00  1.4926356413306429e-19 2.5383250231410787e-22 0.0000000000000000e+00  1.9162444622258492e-05 2.6716940565809172e-08 0.0000000000000000e+00  1.9289874444621264e-05 -5.7116182683405191e-09 0.0000000000000000e+00  1.9289303748344234e-05 1.2403380293500567e-10 0.0000000000000000e+00  1.9157940457083953e-05 1.7175662983143710e-08 0.00000000