<?xml version="1.0"?>
<VTKFile type="UnstructuredGrid"  version="0.1"  >
<UnstructuredGrid>
<Piece  NumberOfPoints="1079" NumberOfCells="1944">
<Points>
<DataArray  type="Float64"  NumberOfComponents="3"  format="ascii">0.08500000000000001 0.02 0  0.005 0.02 0  0.005 0.03 0  0 0.03 0  0 0 0  0.005 0 0  0.005 0.01 0  0.08500000000000001 0.01 0  0 0.015 0  0 0.0075 0  0 0.0225 0  0.04500000000000001 0.02 0  0.04500000000000001 0.01 0  0.025 0.01 0  0.025 0.02 0  0.065 0.02 0  0.065 0.01 0  0.035 0.02 0  0.035 0.01 0  0.07500000000000001 0.02 0  0.07500000000000001 0.01 0  0.015 0.02 0  0.015 0.01 0  0.05500000000000001 0.01 0  0.05500000000000001 0.02 0  0.07000000000000001 0.01 0  0.07000000000000001 0.02 0  0.05 0.01 0  0.03 0.01 0  0.03 0.02 0  0.04000000000000001 0.01 0  0.01 0.01 0  0.02 0.02 0  0.06 0.015 0  0.08500000000000001 0.015 0  0.05 0.02 0  0.07250000000000001 0.015 0  0.04000000000000001 0.02 0  0.03750000000000001 0.015 0  0.0525 0.015 0  0.02 0.01 0  0.01 0.02 0  0.0275 0.015 0  0.0125 0.015 0  0.08000000000000002 0.01 0  0.08000000000000002 0.02 0  0.0325 0.014375 0  0.04291666666666667 0.015 0  0.065 0.015 0  0.005 0.005 0  0.005 0.015 0  0.02208333333333334 0.015 0  0.07791666666666668 0.015 0  0.005 0.025 0  0.06 0.01 0  0.06 0.02 0  0.01729166666666667 0.01572916666666667 0  0.04770833333333334 0.01427083333333334 0  0.06875000000000001 0.01625 0  0.008750000000000001 0.01625 0  0.05625000000000001 0.01625 0  0 0.00375 0  0 0.01875 0  0 0.01125 0  0 0.02625 0  0.08145833333333334 0.01354166666666667 0  0.0675 0.01 0  0.0075 0.0125 0  0.0625 0.0175 0  0.0575 0.0125 0  0.0625 0.0125 0  0.08207465277777778 0.01707465277777778 0  0.06767857142857144 0.01321428571428571 0  0.0175 0.01 0  0.01875 0.01291382575757576 0  0.0475 0.02 0  0.04564168086314595 0.01679860519591141 0  0.00296875 0.0125 0  0.0025 0.03 0  0.0025 0 0  0.00296875 0.0175 0  0.01521990740740741 0.0132349537037037 0  0.0497800925925926 0.0167650462962963 0  0.0325 0.02 0  0.03474264705882353 0.01674632352941176 0  0.03750000000000001 0.02 0  0.03025735294117647 0.01674632352941176 0  0.0275 0.02 0  0.0525 0.02 0  0.0125 0.01 0  0.04020833333333334 0.01322916666666667 0  0.03750000000000001 0.01 0  0.0225 0.02 0  0.02479166666666667 0.01677083333333333 0  0.07520833333333335 0.01322916666666667 0  0.07250000000000001 0.01 0  0.07520833333333335 0.01677083333333334 0  0.07250000000000001 0.02 0  0.04020833333333334 0.01677083333333333 0  0.0225 0.01 0  0.02375 0.01262152777777778 0  0.04250000000000001 0.02 0  0.04250000000000001 0.01 0  0.07750000000000001 0.01 0  0.07750000000000001 0.02 0  0.05036151960784314 0.01294424019607843 0  0.0705560064935065 0.01284699675324675 0  0.05458333333333334 0.01291666666666666 0  0.0021875 0.024375 0  0.005 0.0275 0  0.01125 0.0175 0  0.01463848039215686 0.01705575980392157 0  0.01 0.01375 0  0.03625 0.0125 0  0.0021875 0.009375 0  0.05375000000000001 0.0175 0  0.07125000000000001 0.0175 0  0.005 0.0025 0  0.0021875 0.005625 0  0.02655220103578155 0.01234889948210923 0  0.002187499999999999 0.020625 0  0.02979166666666667 0.01302083333333333 0  0.0525 0.01 0  0.07895833333333334 0.0125 0  0.01994277885235332 0.01704213007736944 0  0.07934656179076068 0.01733823814273861 0  0.04505722114764669 0.01295786992263056 0  0.06625 0.0175 0  0.006250000000000001 0.0175 0  0.05750000000000001 0.02 0  0.05875000000000001 0.0175 0  0.005 0.0225 0  0.005 0.0075 0  0.002375 0.027375 0  0.002375 0.002625000000000001 0  0.0475 0.01 0  0.0175 0.02 0  0.0325 0.01 0  0.03375 0.0121875 0  0.04261299435028249 0.01749205508474576 0  0.08500000000000001 0.0125 0  0.08250000000000002 0.01 0  0.02121963399965531 0.01224824108143494 0  0.0675 0.02 0  0.0125 0.02 0  0.02720152243589744 0.0175 0  0.03715165441176471 0.0175 0  0.08500000000000001 0.0175 0  0.0275 0.01 0  0.0025 0.0149560546875 0  0.0075 0.01 0  0.0075 0.02 0  0.06526785714285716 0.0125 0  0.01281031447005516 0.0125 0  0.0625 0.015 0  0.06 0.0125 0  0.05750000000000001 0.01 0  0.0625 0.02 0  0.0625 0.01 0  0.08250000000000002 0.02 0  0.04260103740101855 0.01252623201412851 0  0.02240052247582197 0.01750164767101344 0  0.07293583459427785 0.01238479732953041 0  0.005234374999999999 0.012265625 0  0.03528131980640358 0.01454684009679821 0  0.0325 0.01760027210036557 0  0.02532593822924343 0.01428227733767297 0  0.08009952069819683 0.01527145502895417 0  0.01987282359856536 0.01482587683689801 0  0.04828232595121382 0.01210233572595705 0  0.01671767404878618 0.01789766427404295 0  0.05125 0.01829007549029352 0  0.05247215456215357 0.01288882122882024 0  0.07338729919678716 0.01799385040160642 0  0.03838729919678716 0.01200614959839357 0  0.07717482110586968 0.01780301674207099 0  0.04771860040890012 0.01773306039388322 0  0.03125 0.01160380747126437 0  0.06875000000000001 0.01154265873015873 0  0.07625000000000001 0.01154065860215054 0  0.01625 0.01153997817696946 0  0.068125 0.018125 0  0.05437500000000001 0.015625 0  0.066875 0.015625 0  0.07039794950204951 0.01494384850614853 0  0.05687500000000001 0.018125 0  0.006875 0.015625 0  0.008749999999999999 0.01833333333333333 0  0.010625 0.015625 0  0.05625 0.01416666666666667 0  0.05812500000000001 0.015625 0  0.0449088595298192 0.01494528408816316 0  0 0.016875 0  0 0.013125 0  0.04962452342047931 0.01478673066448802 0  0.0153754765795207 0.01521326933551198 0  0.0771774565913315 0.01322498191305479 0  0.01857756431135545 0.01840228599899994 0  0.04642243568864456 0.01159771400100006 0  0.08125000000000002 0.01155637254901961 0  0.08317650804863432 0.0118234919513657 0  0.08288217288011697 0.01511353252923977 0  0.02837253504384828 0.0117177464035174 0  0.03896057962520807 0.01831163685754031 0  0.01125 0.0114244162490927 0  0.00935910490099115 0.0119067901980177 0  0.02946078431372549 0.01495404411764706 0  0.02875 0.0185829434466942 0  0.002968749999999999 0.0225 0  0.064375 0.016875 0  0.00296875 0.0075 0  0 0.001875 0  0 0.005625 0  0 0.009375 0  0 0.020625 0  0 0.024375 0  0 0.028125 0  0.06062500000000001 0.01812500000000001 0  0.008303571428571429 0.01446428571428572 0  0.01375 0.01865917058160413 0  0.05137790313978056 0.01143372888932909 0  0.04125000000000001 0.01131513063942604 0  0.04101690263896279 0.01844430285842771 0  0.02399563533148224 0.01844349395710867 0  0.08125000000000002 0.01868815426145731 0  0.05354684380692146 0.01145463537600848 0  0.01699195823639423 0.01315138909884649 0  0.07598357371794873 0.015 0  0.04098357371794872 0.015 0  0.003744047619047619 0.00375 0  0.003344630281690141 0.02580853873239437 0  0.04625 0.0187354532243972 0  0.06388392857142858 0.01138392857142858 0  0.06375 0.01375 0  0.05875 0.01375 0  0.06375 0.02 0  0.00622802734375 0.01372802734375 0  0.003630681818181818 0.001369318181818182 0  0.003630681818181818 0.02863068181818182 0  0.06125 0.01625 0  0.06125 0.01125 0  0.05625000000000001 0.01 0  0.05875 0.01125 0  0.06125 0.01375 0  0.08337864763241221 0.0183786476324122 0  0.05213634138653413 0.01674432930673294 0  0.04375000000000001 0.01 0  0.07424178685897437 0.01529258578431373 0  0.03924178685897436 0.01529258578431372 0  0.03410139294454583 0.01843406022904556 0  0.03089860705545417 0.01843406022904556 0  0.02094160484316717 0.01850229584291991 0  0.04375000000000001 0.02 0  0.04437042160883325 0.01820701498672512 0  0.04816311705429156 0.01600061344661149 0  0.07151224904251052 0.0114127410511319 0  0.04395528506193162 0.01639387970349481 0  0.0128750358694518 0.0167500179347259 0  0.02855808448399799 0.01642839899839741 0  0.02812690373330794 0.01340955081400569 0  0.08358500641945087 0.01351822349116885 0  0.05590277777777778 0.01173611111111111 0  0.06683110430364615 0.01164926404662283 0  0.02573206694914602 0.01842532451809762 0  0.01438126661842046 0.01166701193099454 0  0.02384283211216029 0.01526549696571563 0  0.03625 0.02 0  0.004609375000000001 0.0182421875 0  0.003398437500000001 0.01943359375 0  0.001728307845744682 0.01894718251329787 0  0.004377805359085963 0.01656966216675735 0  0.04649673309852075 0.0153889662370871 0  0.03615513600614297 0.01592654988586041 0  0.03316985071935832 0.01598763605018279 0  0.03110111603888768 0.01529816275177977 0  0.01370614113484869 0.0138804542047638 0  0.04930041102671841 0.01842260568883502 0  0.07875000000000001 0.02 0  0.0745395359848485 0.01165101111925709 0  0.03860755698543604 0.01373741558556884 0  0.02605038706571737 0.01573944002207753 0  0.07559826163500957 0.01841729376139847 0  0.04437500000000001 0.01149157931286774 0  0.06874116707361365 0.01454618473032123 0  0.003761917372881356 0.0239307468220339 0  0.003984374999999999 0.01125 0  0.003768503289473684 0.01392539576480263 0  0.001796875 0.0111328125 0  0.003761917372881356 0.008930746822033899 0  0.005 0.00625 0  0.003761917372881355 0.0210692531779661 0  0.06633928571428571 0.01410714285714285 0  0.006484375 0.01125 0  0.08364120589325512 0.01657288979763549 0  0.03576267476503373 0.0184116442851204 0  0.07370875846579374 0.0137848203678562 0  0.06964285714285715 0.01758928571428571 0  0.05520833333333334 0.01833333333333333 0  0.06491071428571429 0.01839285714285714 0  0.0510098951944636 0.01559941474766356 0  0.01786087179886325 0.0115702210443714 0  0.01972197383235524 0.01160576093166696 0  0.01804697593127788 0.01433503795474974 0  0.001644074528704677 0.01642892723865279 0  0.00125 0.03 0  0.001497685185185185 0.001267746913580247 0  0.07315451164202422 0.01643443118912983 0  0.001233906745910645 0.0140625 0  0.01162635071030191 0.01362229857939618 0  0.01528023503083844 0.01845923557506155 0  0.06625 0.02 0  0.07695012019230771 0.01624387078484555 0  0.03139091092855769 0.01320776147621796 0  0.03857339107781042 0.01675295051810485 0  0.001754993120977522 0.02590789105493891 0  0.002288757784711197 0.00412546923654445 0  0.07914382119690884 0.01404430049871201 0  0.001391810103286306 0.01257390899021902 0  0.0419501201923077 0.01614675005432421 0  0.001484375 0.007018229166666667 0  0.001484375 0.02201822916666666 0  0.048
[...]
<PointData  Vectors="velocity"> 
<DataArray  type="Float64"  Name="velocity"  NumberOfComponents="3" format="ascii">3.5488777184763898e-07 2.6035893777655404e-21 0.0000000000000000e+00  7.6074253103387528e-21 -8.4241047921839432e-21 0.0000000000000000e+00  3.1213143426805740e-19 -1.7475284000076946e-05 0.0000000000000000e+00  -3.5672163916349434e-19 -1.7475284000076912e-05 0.0000000000000000e+00  -3.6189151799195115e-19 1.7475284000076929e-05 0.0000000000000000e+00  3.2957977531409846e-19 1.7475284000076909e-05 0.0000000000000000e+00  6.9269724833599095e-21 6.6695692528009721e-21 0.0000000000000000e+00  3.6448102732855610e-07 -2.7374787301331958e-21 0.0000000000000000e+00  8.5867823935626000e-22 -5.6035068928579466e-23 0.0000000000000000e+00  -9.3051678013208709e-23 6.4684136210098520e-21 0.0000000000000000e+00  3.3490088384959829e-23 -7.3711105439781445e-21 0.0000000000000000e+00  6.8403758662949229e-21 -2.5427142077278015e-23 0.0000000000000000e+00  5.8586127063182475e-21 3.6642967877167092e-23 0.0000000000000000e+00  6.8422921360995608e-21 1.9939715426381407e-23 0.0000000000000000e+00  5.5351163047856958e-21 -2.3327319052525460e-23 0.0000000000000000e+00  6.4918605141689697e-21 2.0584799359357262e-23 0.0000000000000000e+00  6.6909135705153770e-21 8.0381024806814505e-24 0.0000000000000000e+00  5.1979623624221907e-21 -1.2869105881698460e-23 0.0000000000000000e+00  7.7724236065087189e-21 -6.4959227271288528e-24 0.0000000000000000e+00  6.3695141194217161e-21 3.9799009680916528e-23 0.0000000000000000e+00  6.0527164238632273e-21 2.3951280607938592e-23 0.0000000000000000e+00  5.4517619996890063e-21 -1.4386090715602223e-23 0.0000000000000000e+00  5.5020383829408203e-21 -1.3311146282649952e-23 0.0000000000000000e+00  6.5966829995227228e-21 -7.4752885721934895e-23 0.0000000000000000e+00  6.0897347672154908e-21 2.6837381189893500e-23 0.0000000000000000e+00  6.1299880169355740e-21 9.9181573868687641e-24 0.0000000000000000e+00  7.0325861232015788e-21 -2.6908426445755509e-23 0.0000000000000000e+00  6.6424968970375859e-21 2.1067541191907441e-23 0.0000000000000000e+00  6.7498858344379306e-21 3.1368792186771934e-24 0.0000000000000000e+00  5.2300462059675953e-21 -1.4216706403152155e-23 0.0000000000000000e+00  6.1116575661700580e-21 2.1230516099448665e-23 0.0000000000000000e+00  6.5950846640267935e-21 3.3797918110515751e-23 0.0000000000000000e+00  5.6673183624977594e-21 -1.2836162496699558e-23 0.0000000000000000e+00  9.0554701332604259e-07 -1.3242020671584135e-10 0.0000000000000000e+00  8.6971601846069909e-07 2.3797952529709944e-24 0.0000000000000000e+00  5.6614370204197634e-21 3.8440313844883080e-24 0.0000000000000000e+00  9.0553035887594913e-07 3.0527785389949918e-10 0.0000000000000000e+00  6.7941464183857733e-21 -6.1333496453772759e-23 0.0000000000000000e+00  9.0477654198969027e-07 -4.4044682706818209e-10 0.0000000000000000e+00  9.0460378157230738e-07 -4.9252402239360551e-11 0.0000000000000000e+00  5.8902916779169187e-21 2.3996534891268982e-24 0.0000000000000000e+00  6.7228823798603466e-21 -1.2731264875455581e-22 0.0000000000000000e+00  9.0472047044898477e-07 -2.3842517199681052e-11 0.0000000000000000e+00  9.0283355382314420e-07 -3.5551358139404361e-09 0.0000000000000000e+00  5.6496489094393170e-21 -2.2862268998828935e-23 0.0000000000000000e+00  6.4066380517795257e-21 1.1230791543719860e-22 0.0000000000000000e+00  9.0451101314559492e-07 2.6460642355121304e-11 0.0000000000000000e+00  9.0542795420509295e-07 -8.8297643881265246e-11 0.0000000000000000e+00  9.0518386688355632e-07 -7.6168883163882110e-11 0.0000000000000000e+00  -4.6961373504938047e-22 8.1109445099919483e-21 0.0000000000000000e+00  6.8401498757379100e-07 -3.6134363864779907e-08 0.0000000000000000e+00  9.0436910227560855e-07 2.1918724413043010e-10 0.0000000000000000e+00  9.0413357953355971e-07 4.6544016248835580e-11 0.0000000000000000e+00  -7.0535719507272316e-22 -9.9557490517817589e-21 0.0000000000000000e+00  5.7555291644925548e-21 9.9790904510458904e-24 0.0000000000000000e+00  6.4318673557634424e-21 8.1912393009879797e-23 0.0000000000000000e+00  9.0479823720357438e-07 -3.3031631187355675e-10 0.0000000000000000e+00  9.0508404521254742e-07 2.3934696205121644e-10 0.0000000000000000e+00  9.0519061830751837e-07 -2.3096998351070020e-10 0.0000000000000000e+00  8.9133204070570509e-07 -2.8931107938257873e-08 0.0000000000000000e+00  9.0454690093279965e-07 -6.8043392425642905e-10 0.0000000000000000e+00  -4.0953215245417180e-21 1.1611594085017086e-21 0.0000000000000000e+00  3.7961147773332538e-22 -3.6628707015210853e-21 0.0000000000000000e+00  5.2871224749145687e-22 3.9417185430001379e-21 0.0000000000000000e+00  -4.6656635960761356e-21 1.1530088197199645e-21 0.0000000000000000e+00  8.9582362265086890e-07 -8.6530612728089581e-09 0.0000000000000000e+00  5.3872390773131072e-21 -1.5933240574642560e-23 0.0000000000000000e+00  8.9198208247556358e-07 5.1222846902807392e-08 0.0000000000000000e+00  9.0350427653124822e-07 2.4869072809121432e-11 0.0000000000000000e+00  9.0390844711541965e-07 7.6614643283070698e-11 0.0000000000000000e+00  9.0471841882388205e-07 -3.8798641897134523e-10 0.0000000000000000e+00  8.9484741380364457e-07 1.6546068677735354e-08 0.0000000000000000e+00  9.0461893878655349e-07 -1.8335404091012995e-10 0.0000000000000000e+00  6.1810121337825769e-21 -1.4242937945125439e-24 0.0000000000000000e+00  9.0388796308917647e-07 -1.9892454700191984e-11 0.0000000000000000e+00  7.4503458421279077e-21 1.0892193341116454e-22 0.0000000000000000e+00  9.0542656062056963e-07 -6.8991890129365329e-10 0.0000000000000000e+00  4.3262607162878937e-07 3.5236498535612954e-07 0.0000000000000000e+00  -1.9355641732426210e-20 -1.7475284000076997e-05 0.0000000000000000e+00  -2.9923181551393976e-20 1.7475284000077014e-05 0.0000000000000000e+00  4.4829541566572401e-07 -4.4140851411047236e-07 0.0000000000000000e+00  9.0352950773520078e-07 -1.2851294127526901e-09 0.0000000000000000e+00  9.0432755327243308e-07 8.1287658115091435e-10 0.0000000000000000e+00  6.4222114576789825e-21 5.4347348766524552e-23 0.0000000000000000e+00  9.0424976628313809e-07 -2.7891119016278465e-10 0.0000000000000000e+00  6.8207556038512420e-21 3.9204088107408843e-23 0.0000000000000000e+00  9.0442425648980059e-07 -2.8752309969347712e-10 0.0000000000000000e+00  6.9236803167072098e-21 1.3812785521898703e-23 0.0000000000000000e+00  6.1233499070183407e-21 -8.5210452477001238e-25 0.0000000000000000e+00  6.6549826020178363e-21 3.5804568864330546e-23 0.0000000000000000e+00  9.0471627893950000e-07 2.7989850610784578e-10 0.0000000000000000e+00  6.1327830292390067e-21 2.0241477622661962e-23 0.0000000000000000e+00  6.9313009740729211e-21 1.7599488001998580e-23 0.0000000000000000e+00  9.0414650732152851e-07 6.8707370251394310e-11 0.0000000000000000e+00  9.0502681752119800e-07 1.4411235815193347e-10 0.0000000000000000e+00  6.8349116726431490e-21 3.1953511517957783e-24 0.0000000000000000e+00  9.0485345770428444e-07 6.2088895889385400e-10 0.0000000000000000e+00  6.9472769551825532e-21 7.3004292000641325e-23 0.0000000000000000e+00  9.0527204660781482e-07 -1.1490709916569880e-09 0.0000000000000000e+00  5.9735353939693854e-21 2.0178879635190411e-24 0.0000000000000000e+00  9.0336360549950423e-07 6.0863357617453836e-10 0.0000000000000000e+00  6.8078947466725521e-21 -3.6680467385089185e-25 0.0000000000000000e+00  6.1990738820039947e-21 6.2701011693909401e-23 0.0000000000000000e+00  6.5183941925727602e-21 1.1174528962803417e-22 0.0000000000000000e+00  7.0460621195763666e-21 -4.2091393749932727e-23 0.0000000000000000e+00  9.0491013350605107e-07 6.8555630754856191e-10 0.0000000000000000e+00  9.0512158113633002e-07 1.0700946597664640e-09 0.0000000000000000e+00  9.0485765281261188e-07 1.1155596777876188e-10 0.0000000000000000e+00  -1.9115011728074742e-07 -9.9513506587946673e-07 0.0000000000000000e+00  1.2848043514709079e-21 -1.3474278193826788e-20 0.0000000000000000e+00  9.0814284518493305e-07 -7.7268210270519240e-09 0.0000000000000000e+00  9.0616376770518327e-07 -2.5447501495895608e-09 0.0000000000000000e+00  8.9407599521333594e-07 2.1249670813035657e-09 0.0000000000000000e+00  9.0270004245545851e-07 -9.6912447685522884e-10 0.0000000000000000e+00  1.5164929507058608e-07 8.0736971468164810e-07 0.0000000000000000e+00  9.0348852411941152e-07 -1.6423374391022177e-12 0.0000000000000000e+00  9.0540878942034852e-07 -1.0303892096200564e-12 0.0000000000000000e+00  2.3752882844086078e-21 7.4886889292556520e-21 0.0000000000000000e+00  -1.6836250774486489e-07 8.5808880065211618e-07 0.0000000000000000e+00  9.0336282562879516e-07 -6.1900038186692510e-10 0.0000000000000000e+00  1.5118244151933884e-07 -9.3257287638111988e-07 0.0000000000000000e+00  9.0491981369842746e-07 -1.5090576710890615e-10 0.0000000000000000e+00  5.7708821968283349e-21 -4.9808214126309918e-23 0.0000000000000000e+00  9.0316166516054678e-07 -2.7571645460495602e-09 0.0000000000000000e+00  9.0403051146167761e-07 3.5594634844051666e-12 0.0000000000000000e+00  9.0363154581316824e-07 4.1706180261406209e-09 0.0000000000000000e+00  9.0514273646169388e-07 -2.0153430630929285e-10 0.0000000000000000e+00  9.0475226143474479e-07 -1.0686480134489153e-09 0.0000000000000000e+00  9.0343213678071652e-07 -1.6685526195800084e-07 0.0000000000000000e+00  6.8681098569477884e-21 -9.0186092720460696e-23 0.0000000000000000e+00  9.0310720534627042e-07 -3.2292855488986526e-10 0.0000000000000000e+00  8.3449907726819738e-23 -8.5149681733851132e-21 0.0000000000000000e+00  6.5354211425694651e-23 7.5259669344687998e-21 0.0000000000000000e+00  -2.0908331575411036e-06 -2.2792488011836029e-06 0.0000000000000000e+00  -1.6985441384996869e-06 1.8700736990245115e-06 0.0000000000000000e+00  6.1261341886323723e-21 2.2857867283277848e-24 0.0000000000000000e+00  7.0539458664767243e-21 1.0628921766935582e-22 0.0000000000000000e+00  5.8028000017163746e-21 9.6387357506802527e-24 0.0000000000000000e+00  9.0314965271595141e-07 1.1010783297262798e-09 0.0000000000000000e+00  9.0352751655268030e-07 6.6381603248629790e-10 0.0000000000000000e+00  8.2193042851249302e-07 -2.2170246830492990e-22 0.0000000000000000e+00  6.1532668979037596e-21 -1.9727118616984202e-22 0.0000000000000000e+00  9.0350900944185439e-07 2.5307405520229545e-10 0.0000000000000000e+00  6.7643621083671871e-21 4.3883705126744270e-23 0.0000000000000000e+00  6.2122463961926435e-21 -1.3616251866654883e-23 0.0000000000000000e+00  9.0439995427881468e-07 -1.1555053070138538e-10 0.0000000000000000e+00  9.0538159681133082e-07 9.7130648213731506e-11 0.0000000000000000e+00  8.2099163052568567e-07 2.8075052853975835e-22 0.0000000000000000e+00  6.3611165199205097e-21 -7.9314308651094728e-23 0.0000000000000000e+00  3.3645839635932471e-07 -3.3626693963405790e-08 0.0000000000000000e+00  6.3833874290652996e-21 2.0847033784568139e-22 0.0000000000000000e+00  7.5317780606624944e-21 -2.9806526316349037e-22 0.0000000000000000e+00  9.0443869455527567e-07 -4.0500864514826850e-10 0.0000000000000000e+00  9.0125817444873736e-07 -1.1143680096852619e-09 0.0000000000000000e+00  9.0562917302448942e-07 6.2238763715417605e-12 0.0000000000000000e+00  9.0392009142510474e-07 5.7059335065669437e-10 0.0000000000000000e+00  6.5791343097827443e-21 7.0482533218490990e-24 0.0000000000000000e+00  7.6565730791371500e-21 2.0651632278910990e-23 0.0000000000000000e+00  6.3072461648166937e-21 -1.2322329922078469e-22 0.0000000000000000e+00  6.0067487613972233e-21 1.2922183302536352e-22 0.0000000000000000e+00  9.0375299544307244e-07 -1.4527360546242334e-10 0.0000000000000000e+00  9.0386588038400328e-07 3.4131812083607727e-10 0.0000000000000000e+00  9.0365274748740291e-07 -2.9832701896698067e-10 0.0000000000000000e+00  8.1913427630122996e-07 2.4389206781944035e-07 0.0000000000000000e+00  9.0490951299660838e-07 -2.6014237692102210e-10 0.0000000000000000e+00  9.0343165888611268e-07 2.9219789195343307e-10 0.0000000000000000e+00  9.0468712264368117e-07 2.6488687848085288e-10 0.0000000000000000e+00  8.9965624678112218e-07 1.0114361681631351e-09 0.0000000000000000e+00  9.0427568330768996e-07 5.7874273872685816e-11 0.0000000000000000e+00  9.0141439692299093e-07 2.4866240664565118e-10 0.0000000000000000e+00  9.0352554956935124e-07 1.5769227102527507e-10 0.0000000000000000e+00  8.9964603984576067e-07 6.5848411641028467e-11 0.0000000000000000e+00  9.0455830884306603e-07 -8.6820211834867969e-10 0.0000000000000000e+00  9.0185933774654549e-07 5.2879395938332284e-10 0.0000000000000000e+00  9.0102601408507383e-07 -3.3305279773944574e-10 0.0000000000000000e+00  9.0309955398257320e-07 3.6960959970361406e-10 0.0000000000000000e+00  9.0437543156300353e-07 1.1273814257791931e-09 0.0000000000000000e+00  8.9827997825486548e-07 -1.0458006804770204e-09 0.0000000000000000e+00  8.9820273417339124e-07 9.7852565104985307e-10 0.0000000000000000e+00  8.9967613957486389e-07 -1.3979515943165469e-10 0.0000000000000000e+00  8.9781525280571104e-07 -6.5763324801015596e-10 0.0000000000000000e+00  9.0011165013714732e-07 -5.5059388492829067e-10 0.0000000000000000e+00  9.0450241889388050e-07 -2.4620673084089328e-10 0.0000000000000000e+00  9.0502162807233896e-07 -1.6713149888737193e-10 0.0000000000000000e+00  9.0541876979569211e-07 2.1235562988488099e-10 0.0000000000000000e+00  9.0103003156520256e-07 -8.5339085008979464e-10 0.0000000000000000e+00  8.2929704021219542e-07 -5.1095175835553210e-08 0.0000000000000000e+00  9.2640973967992881e-07 -2.7562842704569138e-08 0.0000000000000000e+00  8.9917318700105778e-07 -8.8866894697459955e-09 0.0000000000000000e+00  9.0482874223009425e-07 -2.7595504748671875e-10 0.0000000000000000e+00  9.0531049791044776e-07 -6.0762086482726726e-10 0.0000000000000000e+00  9.0533396059750402e-07 -1.4344911574080917e-10 0.0000000000000000e+00  5.6167639053489581e-22 -2.2846246433571288e-21 0.0000000000000000e+00  8.6440142617784908e-22 1.8943013192765417e-21 0.0000000000000000e+00  9.0485066818860702e-07 4.3565400694197967e-10 0.0000000000000000e+00  9.0465564608382517e-07 -1.4572060879392777e-09 0.0000000000000000e+00  9.0547370560591111e-07 1.7627989197251542e-10 0.0000000000000000e+00  8.9848176111915844e-07 3.9995483163207916e-10 0.0000000000000000e+00  9.0022197316577637e-07 4.8502163445666547e-10 0.0000000000000000e+00  9.0516633670433002e-07 -1.2166154801286700e-08 0.0000000000000000e+00  8.9368908028408956e-07 -5.6167699084185523e-08 0.0000000000000000e+00  8.8175433346584135e-07 9.6524160189626354e-10 0.0000000000000000e+00  8.9898019319807064e-07 7.8445178775765773e-10 0.0000000000000000e+00  8.9920161308333653e-07 -7.7185829248160178e-11 0.0000000000000000e+00  8.6413922089043278e-07 3.5753720172069581e-10 0.0000000000000000e+00  9.0157228090742693e-07 1.1801776186875527e-08 0.0000000000000000e+00  9.0463049254913088e-07 -1.2621141076247058e-10 0.0000000000000000e+00  8.9573414526898340e-07 1.0625919208256657e-09 0.0000000000000000e+00  6.7475022876364668e-09 -1.0660404917921874e-06 0.0000000000000000e+00  9.0478539723542304e-07 5.5903218456768449e-10 0.0000000000000000e+00  9.9451107723461639e-09 9.2163449407950270e-07 0.0000000000000000e+00  -3.9788409615246906e-20 -3.8677303785724015e-20 0.0000000000000000e+00  -7.4814130789988394e-22 5.3043573299442010e-21 0.0000000000000000e+00  3.5430493118137414e-22 6.1532252282003561e-21 0.0000000000000000e+00  3.2660528549234250e-22 -6.0752663080701073e-21 0.0000000000000000e+00  -7.7940545768630444e-22 -6.8587680276394796e-21 0.0000000000000000e+00  -4.0193216890654809e-20 3.2452920371822403e-20 0.0000000000000000e+00  9.0177570653051850e-07 -6.2629838029912869e-10 0.0000000000000000e+00  8.6973829078406525e-07 -7.1758123672575739e-10 0.0000000000000000e+00  8.6989573081896682e-07 -2.1010470743569268e-09 0.0000000000000000e+00  8.6893164970342199e-07 3.0778633163281479e-10 0.0000000000000000e+00  8.6937688019690899e-07 -1.1890792562583688e-10 0.0000000000000000e+00  8.6864339826234042e-07 9.5520657286789895e-10 0.0000000000000000e+00  8.9711196875338918e-07 1.1878388436566833e-09 0.0000000000000000e+00  9.0098470945307744e-07 1.3112818402466515e-08 0.0000000000000000e+00  8.9739908683640919e-07 -1.5716234015232012e-10 0.0000000000000000e+00  9.0365427298779940e-07 -5.2282026645773181e-10 0.0000000000000000e+00  9.0498743081179622e-07 2.5452213002369629e-10 0.0000000000000000e+00  9.0528078075753628e-07 -1.9922820088615705e-10 0.0000000000000000e+00  -1.6525491972361390e-07 1.3389065250976469e-06 0.0000000000000000e+00  -3.3752021839136990e-07 -1.3956768025354929e-06 0.0000000000000000e+00  8.7146659791254194e-07 -2.9662264911227019e-09 0.0000000000000000e+00  8.9556458462319010e-07 1.1195517566477698e-09 0.0000000000000000e+00  9.0538156571272982e-07 -1.8179330567877975e-10 0.0000000000000000e+00  9.0518679005379376e-07 -2.0672580736493938e-10 0.0000000000000000e+00  6.5265959401416025e-21 7.2361932765659684e-23 0.0000000000000000e+00  8.0055639467590467e-07 5.8003952485135433e-08 0.0000000000000000e+00  3.7248197508518455e-06 4.3677411917717670e-06 0.0000000000000000e+00  3.7872879583672780e-06 -4.6620553508358231e-06 0.0000000000000000e+00  9.0571682513975833e-07 -1.4559155476234678e-10 0.0000000000000000e+00  8.6241843918916815e-07 8.6944069958018223e-10 0.0000000000000000e+00  6.1073887213945939e-21 1.8918728430323945e-23 0.0000000000000000e+00  8.6631856664306676e-07 -1.3924450082005602e-09 0.0000000000000000e+00  9.0572519767647110e-07 1.5980433017974129e-10 0.0000000000000000e+00  8.9336340189594508e-07 7.1897720343070211e-08 0.0000000000000000e+00  9.0417002128807257e-07 3.7059841302602137e-11 0.0000000000000000e+00  6.3936280921507734e-21 -6.4443963681511498e-23 0.0000000000000000e+00  9.0524494962812123e-07 3.6348672843167023e-10 0.0000000000000000e+00  9.0489747520877822e-07 -4.0353454578017637e-10 0.0000000000000000e+00  8.9744737027580988e-07 -3.0586070238226629e-10 0.0000000000000000e+00  8.9987577341694122e-07 1.7152964232224205e-10 0.0000000000000000e+00  8.9765028638714168e-07 -6.8144801598432529e-10 0.0000000000000000e+00  6.4422373867397080e-21 5.3364077449059222e-23 0.0000000000000000e+00  9.0040436932605841e-07 -2.6166771748154803e-10 0.0000000000000000e+00  9.0533904833983144e-07 7.2074990996354846e-10 0.0000000000000000e+00  8.7090142326963269e-07 2.0447711643535843e-09 0.0000000000000000e+00  9.0519592063894443e-07 -3.9165022725492742e-11 0.0000000000000000e+00  9.0533897603573841e-07 -4.5075850557961619e-09 0.0000000000000000e+00  9.0452079622184865e-07 1.2492329109264760e-10 0.0000000000000000e+00  9.0463614769462105e-07 -2.1269348067479353e-10 0.0000000000000000e+00  8.7312060404982835e-07 -1.3676083785973219e-08 0.0000000000000000e+00  8.9980933368841515e-07 5.4905763072331791e-10 0.0000000000000000e+00  8.9945677222988392e-07 -8.0480662655488034e-10 0.0000000000000000e+00  8.9855759647797432e-07 -5.8249156709024453e-10 0.0000000000000000e+00  9.0011627145269243e-07 -1.4727691338987263e-09 0.0000000000000000e+00  9.0446101951664672e-07 2.7883608091139050e-10 0.0000000000000000e+00  6.8773854826585720e-21 -7.6163714212620274e-23 0.0000000000000000e+00  8.3767089724925197e-07 -4.8471199062888858e-07 0.0000000000000000e+00  4.9473614452353236e-07 -9.1235022073611419e-07 0.0000000000000000e+00  2.1092460245592885e-07 -6.8585591732015594e-07 0.0000000000000000e+00  6.4729675527638951e-07 -2.3229595898553073e-07 0.0000000000000000e+00  9.0547359057281521e-07 4.7207287398142142e-11 0.0000000000000000e+00  9.0473186057999580e-07 -4.7743116380442095e-10 0.0000000000000000e+00  9.0461995956661620e-07 7.6850099243935030e-11 0.0000000000000000e+00  9.0459966078438059e-07 -1.7307008398278319e-10 0.0000000000000000e+00  9.0339859536055619e-07 -1.9584737649731182e-09 0.0000000000000000e+00  8.9929742159545037e-07 2.0037380827344950e-09 0.0000000000000000e+00  7.1173628371638960e-21 1.6571366951818302e-23 0.0000000000000000e+00  8.9865183871787044e-07 1.2547048851660755e-09 0.0000000000000000e+00  9.0463051373128423e-07 -2.6797012223236906e-10 0.0000000000000000e+00  9.0460437690858829e-07 3.9126951004683806e-12 0.0000000000000000e+00  8.9844302785568662e-07 8.0650233900974118e-10 0.000000