<?xml version="1.0"?>
<VTKFile type="UnstructuredGrid"  version="0.1"  >
<UnstructuredGrid>
<Piece  NumberOfPoints="1079" NumberOfCells="1944">
<Points>
<DataArray  type="Float64"  NumberOfComponents="3"  format="ascii">0.08500000000000001 0.02 0  0.005 0.02 0  0.005 0.03 0  0 0.03 0  0 0 0  0.005 0 0  0.005 0.01 0  0.08500000000000001 0.01 0  0 0.015 0  0 0.0075 0  0 0.0225 0  0.04500000000000001 0.02 0  0.04500000000000001 0.01 0  0.025 0.01 0  0.025 0.02 0  0.065 0.02 0  0.065 0.01 0  0.035 0.02 0  0.035 0.01 0  0.07500000000000001 0.02 0  0.07500000000000001 0.01 0  0.015 0.02 0  0.015 0.01 0  0.05500000000000001 0.01 0  0.05500000000000001 0.02 0  0.07000000000000001 0.01 0  0.07000000000000001 0.02 0  0.05 0.01 0  0.03 0.01 0  0.03 0.02 0  0.04000000000000001 0.01 0  0.01 0.01 0  0.02 0.02 0  0.06 0.015 0  0.08500000000000001 0.015 0  0.05 0.02 0  0.07250000000000001 0.015 0  0.04000000000000001 0.02 0  0.03750000000000001 0.015 0  0.0525 0.015 0  0.02 0.01 0  0.01 0.02 0  0.0275 0.015 0  0.0125 0.015 0  0.08000000000000002 0.01 0  0.08000000000000002 0.02 0  0.0325 0.014375 0  0.04291666666666667 0.015 0  0.065 0.015 0  0.005 0.005 0  0.005 0.015 0  0.02208333333333334 0.015 0  0.07791666666666668 0.015 0  0.005 0.025 0  0.06 0.01 0  0.06 0.02 0  0.01729166666666667 0.01572916666666667 0  0.04770833333333334 0.01427083333333334 0  0.06875000000000001 0.01625 0  0.008750000000000001 0.01625 0  0.05625000000000001 0.01625 0  0 0.00375 0  0 0.01875 0  0 0.01125 0  0 0.02625 0  0.08145833333333334 0.01354166666666667 0  0.0675 0.01 0  0.0075 0.0125 0  0.0625 0.0175 0  0.0575 0.0125 0  0.0625 0.0125 0  0.08207465277777778 0.01707465277777778 0  0.06767857142857144 0.01321428571428571 0  0.0175 0.01 0  0.01875 0.01291382575757576 0  0.0475 0.02 0  0.04564168086314595 0.01679860519591141 0  0.00296875 0.0125 0  0.0025 0.03 0  0.0025 0 0  0.00296875 0.0175 0  0.01521990740740741 0.0132349537037037 0  0.0497800925925926 0.0167650462962963 0  0.0325 0.02 0  0.03474264705882353 0.01674632352941176 0  0.03750000000000001 0.02 0  0.03025735294117647 0.01674632352941176 0  0.0275 0.02 0  0.0525 0.02 0  0.0125 0.01 0  0.04020833333333334 0.01322916666666667 0  0.03750000000000001 0.01 0  0.0225 0.02 0  0.02479166666666667 0.01677083333333333 0  0.07520833333333335 0.01322916666666667 0  0.07250000000000001 0.01 0  0.07520833333333335 0.01677083333333334 0  0.07250000000000001 0.02 0  0.04020833333333334 0.01677083333333333 0  0.0225 0.01 0  0.02375 0.01262152777777778 0  0.04250000000000001 0.02 0  0.04250000000000001 0.01 0  0.07750000000000001 0.01 0  0.07750000000000001 0.02 0  0.05036151960784314 0.01294424019607843 0  0.0705560064935065 0.01284699675324675 0  0.05458333333333334 0.01291666666666666 0  0.0021875 0.024375 0  0.005 0.0275 0  0.01125 0.0175 0  0.01463848039215686 0.01705575980392157 0  0.01 0.01375 0  0.03625 0.0125 0  0.0021875 0.009375 0  0.05375000000000001 0.0175 0  0.07125000000000001 0.0175 0  0.005 0.0025 0  0.0021875 0.005625 0  0.02655220103578155 0.01234889948210923 0  0.002187499999999999 0.020625 0  0.02979166666666667 0.01302083333333333 0  0.0525 0.01 0  0.07895833333333334 0.0125 0  0.01994277885235332 0.01704213007736944 0  0.07934656179076068 0.01733823814273861 0  0.04505722114764669 0.01295786992263056 0  0.06625 0.0175 0  0.006250000000000001 0.0175 0  0.05750000000000001 0.02 0  0.05875000000000001 0.0175 0  0.005 0.0225 0  0.005 0.0075 0  0.002375 0.027375 0  0.002375 0.002625000000000001 0  0.0475 0.01 0  0.0175 0.02 0  0.0325 0.01 0  0.03375 0.0121875 0  0.04261299435028249 0.01749205508474576 0  0.08500000000000001 0.0125 0  0.08250000000000002 0.01 0  0.02121963399965531 0.01224824108143494 0  0.0675 0.02 0  0.0125 0.02 0  0.02720152243589744 0.0175 0  0.03715165441176471 0.0175 0  0.08500000000000001 0.0175 0  0.0275 0.01 0  0.0025 0.0149560546875 0  0.0075 0.01 0  0.0075 0.02 0  0.06526785714285716 0.0125 0  0.01281031447005516 0.0125 0  0.0625 0.015 0  0.06 0.0125 0  0.05750000000000001 0.01 0  0.0625 0.02 0  0.0625 0.01 0  0.08250000000000002 0.02 0  0.04260103740101855 0.01252623201412851 0  0.02240052247582197 0.01750164767101344 0  0.07293583459427785 0.01238479732953041 0  0.005234374999999999 0.012265625 0  0.03528131980640358 0.01454684009679821 0  0.0325 0.01760027210036557 0  0.02532593822924343 0.01428227733767297 0  0.08009952069819683 0.01527145502895417 0  0.01987282359856536 0.01482587683689801 0  0.04828232595121382 0.01210233572595705 0  0.01671767404878618 0.01789766427404295 0  0.05125 0.01829007549029352 0  0.05247215456215357 0.01288882122882024 0  0.07338729919678716 0.01799385040160642 0  0.03838729919678716 0.01200614959839357 0  0.07717482110586968 0.01780301674207099 0  0.04771860040890012 0.01773306039388322 0  0.03125 0.01160380747126437 0  0.06875000000000001 0.01154265873015873 0  0.07625000000000001 0.01154065860215054 0  0.01625 0.01153997817696946 0  0.068125 0.018125 0  0.05437500000000001 0.015625 0  0.066875 0.015625 0  0.07039794950204951 0.01494384850614853 0  0.05687500000000001 0.018125 0  0.006875 0.015625 0  0.008749999999999999 0.01833333333333333 0  0.010625 0.015625 0  0.05625 0.01416666666666667 0  0.05812500000000001 0.015625 0  0.0449088595298192 0.01494528408816316 0  0 0.016875 0  0 0.013125 0  0.04962452342047931 0.01478673066448802 0  0.0153754765795207 0.01521326933551198 0  0.0771774565913315 0.01322498191305479 0  0.01857756431135545 0.01840228599899994 0  0.04642243568864456 0.01159771400100006 0  0.08125000000000002 0.01155637254901961 0  0.08317650804863432 0.0118234919513657 0  0.08288217288011697 0.01511353252923977 0  0.02837253504384828 0.0117177464035174 0  0.03896057962520807 0.01831163685754031 0  0.01125 0.0114244162490927 0  0.00935910490099115 0.0119067901980177 0  0.02946078431372549 0.01495404411764706 0  0.02875 0.0185829434466942 0  0.002968749999999999 0.0225 0  0.064375 0.016875 0  0.00296875 0.0075 0  0 0.001875 0  0 0.005625 0  0 0.009375 0  0 0.020625 0  0 0.024375 0  0 0.028125 0  0.06062500000000001 0.01812500000000001 0  0.008303571428571429 0.01446428571428572 0  0.01375 0.01865917058160413 0  0.05137790313978056 0.01143372888932909 0  0.04125000000000001 0.01131513063942604 0  0.04101690263896279 0.01844430285842771 0  0.02399563533148224 0.01844349395710867 0  0.08125000000000002 0.01868815426145731 0  0.05354684380692146 0.01145463537600848 0  0.01699195823639423 0.01315138909884649 0  0.07598357371794873 0.015 0  0.04098357371794872 0.015 0  0.003744047619047619 0.00375 0  0.003344630281690141 0.02580853873239437 0  0.04625 0.0187354532243972 0  0.06388392857142858 0.01138392857142858 0  0.06375 0.01375 0  0.05875 0.01375 0  0.06375 0.02 0  0.00622802734375 0.01372802734375 0  0.003630681818181818 0.001369318181818182 0  0.003630681818181818 0.02863068181818182 0  0.06125 0.01625 0  0.06125 0.01125 0  0.05625000000000001 0.01 0  0.05875 0.01125 0  0.06125 0.01375 0  0.08337864763241221 0.0183786476324122 0  0.05213634138653413 0.01674432930673294 0  0.04375000000000001 0.01 0  0.07424178685897437 0.01529258578431373 0  0.03924178685897436 0.01529258578431372 0  0.03410139294454583 0.01843406022904556 0  0.03089860705545417 0.01843406022904556 0  0.02094160484316717 0.01850229584291991 0  0.04375000000000001 0.02 0  0.04437042160883325 0.01820701498672512 0  0.04816311705429156 0.01600061344661149 0  0.07151224904251052 0.0114127410511319 0  0.04395528506193162 0.01639387970349481 0  0.0128750358694518 0.0167500179347259 0  0.02855808448399799 0.01642839899839741 0  0.02812690373330794 0.01340955081400569 0  0.08358500641945087 0.01351822349116885 0  0.05590277777777778 0.01173611111111111 0  0.06683110430364615 0.01164926404662283 0  0.02573206694914602 0.01842532451809762 0  0.01438126661842046 0.01166701193099454 0  0.02384283211216029 0.01526549696571563 0  0.03625 0.02 0  0.004609375000000001 0.0182421875 0  0.003398437500000001 0.01943359375 0  0.001728307845744682 0.01894718251329787 0  0.004377805359085963 0.01656966216675735 0  0.04649673309852075 0.0153889662370871 0  0.03615513600614297 0.01592654988586041 0  0.03316985071935832 0.01598763605018279 0  0.03110111603888768 0.01529816275177977 0  0.01370614113484869 0.0138804542047638 0  0.04930041102671841 0.01842260568883502 0  0.07875000000000001 0.02 0  0.0745395359848485 0.01165101111925709 0  0.03860755698543604 0.01373741558556884 0  0.02605038706571737 0.01573944002207753 0  0.07559826163500957 0.01841729376139847 0  0.04437500000000001 0.01149157931286774 0  0.06874116707361365 0.01454618473032123 0  0.003761917372881356 0.0239307468220339 0  0.003984374999999999 0.01125 0  0.003768503289473684 0.01392539576480263 0  0.001796875 0.0111328125 0  0.003761917372881356 0.008930746822033899 0  0.005 0.00625 0  0.003761917372881355 0.0210692531779661 0  0.06633928571428571 0.01410714285714285 0  0.006484375 0.01125 0  0.08364120589325512 0.01657288979763549 0  0.03576267476503373 0.0184116442851204 0  0.07370875846579374 0.0137848203678562 0  0.06964285714285715 0.01758928571428571 0  0.05520833333333334 0.01833333333333333 0  0.06491071428571429 0.01839285714285714 0  0.0510098951944636 0.01559941474766356 0  0.01786087179886325 0.0115702210443714 0  0.01972197383235524 0.01160576093166696 0  0.01804697593127788 0.01433503795474974 0  0.001644074528704677 0.01642892723865279 0  0.00125 0.03 0  0.001497685185185185 0.001267746913580247 0  0.07315451164202422 0.01643443118912983 0  0.001233906745910645 0.0140625 0  0.01162635071030191 0.01362229857939618 0  0.01528023503083844 0.01845923557506155 0  0.06625 0.02 0  0.07695012019230771 0.01624387078484555 0  0.03139091092855769 0.01320776147621796 0  0.03857339107781042 0.01675295051810485 0  0.001754993120977522 0.02590789105493891 0  0.002288757784711197 0.00412546923654445 0  0.07914382119690884 0.01404430049871201 0  0.001391810103286306 0.01257390899021902 0  0.0419501201923077 0.01614675005432421 0  0.001484375 0.007018229166666667 0  0.001484375 0.02201822916666666 0  0.048
[...]
<PointData  Vectors="velocity"> 
<DataArray  type="Float64"  Name="velocity"  NumberOfComponents="3" format="ascii">1.3751113768425121e-06 1.0250995040300403e-20 0.0000000000000000e+00  2.8639718815392953e-20 -3.2309182788615175e-20 0.0000000000000000e+00  1.2019968276161216e-18 -6.7341506577508705e-05 0.0000000000000000e+00  -1.4785853449385418e-18 -6.7341506577508597e-05 0.0000000000000000e+00  -1.3441684953986756e-18 6.7341506577508651e-05 0.0000000000000000e+00  1.3338287377417631e-18 6.7341506577508583e-05 0.0000000000000000e+00  2.7730490169926945e-20 2.6537643508374663e-20 0.0000000000000000e+00  1.4122725408530921e-06 -1.0450299030622541e-20 0.0000000000000000e+00  3.1316500494169483e-21 -2.4939551804832553e-22 0.0000000000000000e+00  -3.4713137443974285e-22 2.5297774621578194e-20 0.0000000000000000e+00  1.3861000558767509e-22 -2.9012720379534118e-20 0.0000000000000000e+00  2.6431170280123911e-20 -9.5237216080538480e-23 0.0000000000000000e+00  2.3862760212339395e-20 1.3423428435572280e-22 0.0000000000000000e+00  2.6391698239241163e-20 8.0183110969916722e-23 0.0000000000000000e+00  2.2231129418459440e-20 -8.9896257970122161e-23 0.0000000000000000e+00  2.3128895758982565e-20 6.2421735713163175e-23 0.0000000000000000e+00  2.4394155489707040e-20 3.4145295517332009e-23 0.0000000000000000e+00  2.0919812684736041e-20 -4.6493161383889218e-23 0.0000000000000000e+00  2.9713808331860660e-20 -2.9427891614637982e-23 0.0000000000000000e+00  2.5458512969750666e-20 1.6161309496528531e-22 0.0000000000000000e+00  2.2886833977732827e-20 9.6543979417089242e-23 0.0000000000000000e+00  2.2039037871083217e-20 -5.5505389375158183e-23 0.0000000000000000e+00  2.1578975924980547e-20 -4.7800275772338093e-23 0.0000000000000000e+00  2.5382888932946128e-20 -2.8385822862180186e-22 0.0000000000000000e+00  2.4609560354294751e-20 1.0536322809203303e-22 0.0000000000000000e+00  2.3504332751326936e-20 3.9672629547475056e-23 0.0000000000000000e+00  2.8607129992684388e-20 -9.9213909764667389e-23 0.0000000000000000e+00  2.6782739146009090e-20 8.1068117507305684e-23 0.0000000000000000e+00  2.5697314559403569e-20 8.8171740200656249e-24 0.0000000000000000e+00  2.1401212934788010e-20 -4.5663635529326617e-23 0.0000000000000000e+00  2.3238411438568856e-20 8.1494280317341389e-23 0.0000000000000000e+00  2.5049220650523784e-20 1.3282818166510386e-22 0.0000000000000000e+00  2.2504764934388780e-20 -4.7231937096741799e-23 0.0000000000000000e+00  3.5082931246022057e-06 -5.1291551804005874e-10 0.0000000000000000e+00  3.3694556724660255e-06 8.7571296315385823e-24 0.0000000000000000e+00  2.2214200536803041e-20 1.3601414660157750e-23 0.0000000000000000e+00  3.5082285200930943e-06 1.1827196583375266e-09 0.0000000000000000e+00  2.5474380523364369e-20 -2.3570405366160149e-22 0.0000000000000000e+00  3.5053081442362786e-06 -1.7063576653086522e-09 0.0000000000000000e+00  3.5046387671261749e-06 -1.9087732279582750e-10 0.0000000000000000e+00  2.3986970929348416e-20 1.0828761232522103e-23 0.0000000000000000e+00  2.6147984924433789e-20 -4.9569639667173061e-22 0.0000000000000000e+00  3.5050908499643066e-06 -9.1679597632255314e-11 0.0000000000000000e+00  3.4977804889326211e-06 -1.3664732391257104e-08 0.0000000000000000e+00  2.2007782679907404e-20 -8.4092762311149960e-23 0.0000000000000000e+00  2.2999923748653857e-20 4.4952085621884374e-22 0.0000000000000000e+00  3.5042794561853266e-06 1.0266563926886630e-10 0.0000000000000000e+00  3.5078319131149391e-06 -3.4205100120962977e-10 0.0000000000000000e+00  3.5068860435494810e-06 -2.9510677254892522e-10 0.0000000000000000e+00  -1.8286945444306999e-21 3.1647611707698647e-20 0.0000000000000000e+00  2.6500431689492791e-06 -1.3898561201342303e-07 0.0000000000000000e+00  3.5037295852810956e-06 8.5368881606960685e-10 0.0000000000000000e+00  3.5028162798098431e-06 1.8032590212907392e-10 0.0000000000000000e+00  -2.8173302629784311e-21 -3.6733701979013223e-20 0.0000000000000000e+00  2.1406529524077572e-20 5.3800313736073499e-23 0.0000000000000000e+00  2.5766480126585697e-20 3.1178356247919987e-22 0.0000000000000000e+00  3.5053860399699143e-06 -1.2585509846447010e-09 0.0000000000000000e+00  3.5064993398155835e-06 9.2729575242078241e-10 0.0000000000000000e+00  3.5069123538780310e-06 -8.9474575362962265e-10 0.0000000000000000e+00  3.4530835346789429e-06 -1.1174583776958839e-07 0.0000000000000000e+00  3.5044186292640714e-06 -2.6363101803386187e-09 0.0000000000000000e+00  -1.5308098085811738e-20 4.5752140450002777e-21 0.0000000000000000e+00  1.4325973788664010e-21 -1.3850229840126603e-20 0.0000000000000000e+00  1.9708592715000689e-21 1.5622884453534792e-20 0.0000000000000000e+00  -1.8662654384304542e-20 4.8623007591291522e-21 0.0000000000000000e+00  3.4706190116224543e-06 -3.3526914643041942e-08 0.0000000000000000e+00  2.1754184464578644e-20 -6.0259048211017143e-23 0.0000000000000000e+00  3.4561414333048494e-06 1.9884811839381154e-07 0.0000000000000000e+00  3.5003794687593676e-06 9.7533818011248524e-11 0.0000000000000000e+00  3.5019454933447717e-06 2.9634714881437539e-10 0.0000000000000000e+00  3.5050831608707656e-06 -1.5038153843663630e-09 0.0000000000000000e+00  3.4668363171410965e-06 6.4107808093307203e-08 0.0000000000000000e+00  3.5046974200387247e-06 -7.1029046795793153e-10 0.0000000000000000e+00  2.4061683504822848e-20 -5.1134874288713693e-24 0.0000000000000000e+00  3.5018740094610438e-06 -6.6861151592136855e-11 0.0000000000000000e+00  2.8815308183524112e-20 4.1418153657624554e-22 0.0000000000000000e+00  3.5078265744704482e-06 -2.6726413241379682e-09 0.0000000000000000e+00  1.6764480640089210e-06 1.3666825660261016e-06 0.0000000000000000e+00  -8.0471842403593124e-20 -6.7341506577508963e-05 0.0000000000000000e+00  -1.1986863035640526e-19 6.7341506577508990e-05 0.0000000000000000e+00  1.7364927152343234e-06 -1.7086025578081462e-06 0.0000000000000000e+00  3.5005017952525488e-06 -4.9424030473200167e-09 0.0000000000000000e+00  3.5035682834613878e-06 3.1490939434317086e-09 0.0000000000000000e+00  2.3458935602175118e-20 2.0997694015865179e-22 0.0000000000000000e+00  3.5032672000561464e-06 -1.0807138299146455e-09 0.0000000000000000e+00  2.4896794697032849e-20 1.5309179352986201e-22 0.0000000000000000e+00  3.5039432584132708e-06 -1.1137113473145591e-09 0.0000000000000000e+00  2.7121400468257365e-20 5.4819247491405847e-23 0.0000000000000000e+00  2.2126463982085487e-20 -6.2157570726260768e-24 0.0000000000000000e+00  2.6351207000733131e-20 1.3696149274428879e-22 0.0000000000000000e+00  3.5050745663023450e-06 1.0844448209356854e-09 0.0000000000000000e+00  2.3337131614793631e-20 9.1941594994076774e-23 0.0000000000000000e+00  2.5165206740098457e-20 6.7509034300474841e-23 0.0000000000000000e+00  3.5028662474970495e-06 2.6753390899284784e-10 0.0000000000000000e+00  3.5062775754385389e-06 5.5848009806619416e-10 0.0000000000000000e+00  2.4145559167081216e-20 1.1318010509151373e-23 0.0000000000000000e+00  3.5056062649393898e-06 2.4054033832297934e-09 0.0000000000000000e+00  2.6881827839221384e-20 2.7968440237690184e-22 0.0000000000000000e+00  3.5072277034010958e-06 -4.4520095649786846e-09 0.0000000000000000e+00  2.2316226566149780e-20 8.0715518540761643e-24 0.0000000000000000e+00  3.4998363647311996e-06 2.3593456147448224e-09 0.0000000000000000e+00  2.5541343049585300e-20 -7.3360934770178374e-24 0.0000000000000000e+00  2.4321413508964373e-20 2.2583048664918692e-22 0.0000000000000000e+00  2.5091787098385338e-20 4.3195511038015760e-22 0.0000000000000000e+00  2.7443671378650296e-20 -1.6348900704441223e-22 0.0000000000000000e+00  3.5058253451394283e-06 2.6557665952528898e-09 0.0000000000000000e+00  3.5066449296056263e-06 4.1457193821379415e-09 0.0000000000000000e+00  3.5056222155179159e-06 4.3249963243457526e-10 0.0000000000000000e+00  -7.3690710286213271e-07 -3.8539784878863508e-06 0.0000000000000000e+00  4.5072524748001392e-21 -5.1735989176783296e-20 0.0000000000000000e+00  3.5182253056771374e-06 -2.9820122083265096e-08 0.0000000000000000e+00  3.5106490911253623e-06 -9.8180733593204015e-09 0.0000000000000000e+00  3.4639561435940560e-06 8.4559922672961363e-09 0.0000000000000000e+00  3.4972649218467937e-06 -3.7551466990669469e-09 0.0000000000000000e+00  5.8790927400837651e-07 3.1300894493878594e-06 0.0000000000000000e+00  3.5003173550986473e-06 -6.2426998764883681e-12 0.0000000000000000e+00  3.5077574154543556e-06 -2.6919812050363391e-12 0.0000000000000000e+00  9.9171914114819686e-21 3.0496573003893819e-20 0.0000000000000000e+00  -6.4959153135121001e-07 3.3272560804295171e-06 0.0000000000000000e+00  3.4998309398282187e-06 -2.3986765655178107e-09 0.0000000000000000e+00  5.8577571689026696e-07 -3.6109222149237224e-06 0.0000000000000000e+00  3.5058633264495487e-06 -5.8368997534737364e-10 0.0000000000000000e+00  2.2127905944125580e-20 -1.9329791301434082e-22 0.0000000000000000e+00  3.4990549433341475e-06 -1.0684847176038264e-08 0.0000000000000000e+00  3.5024123301567834e-06 2.0602086426200129e-11 0.0000000000000000e+00  3.5008718485326128e-06 1.6159647424569088e-08 0.0000000000000000e+00  3.5067267611806262e-06 -7.8050237463970492e-10 0.0000000000000000e+00  3.5052136575945699e-06 -4.1404730806559873e-09 0.0000000000000000e+00  3.4995828218038370e-06 -6.4575200980419267e-07 0.0000000000000000e+00  2.5587859777547134e-20 -3.5061221750587380e-22 0.0000000000000000e+00  3.4988392367009510e-06 -1.2492249383096672e-09 0.0000000000000000e+00  3.0823199960374269e-22 -3.2605358557161499e-20 0.0000000000000000e+00  2.6635308544103944e-22 2.8990842203103298e-20 0.0000000000000000e+00  -8.0607695293628247e-06 -8.8185484591976112e-06 0.0000000000000000e+00  -6.5530734506852785e-06 7.2406268877987601e-06 0.0000000000000000e+00  2.3695424691879931e-20 7.3370932020398029e-24 0.0000000000000000e+00  2.8094874382102853e-20 3.9692614532189857e-22 0.0000000000000000e+00  2.2243049702276357e-20 4.1590457511592287e-23 0.0000000000000000e+00  3.4990045716712461e-06 4.2654909339445184e-09 0.0000000000000000e+00  3.5004681008096903e-06 2.5728047983479296e-09 0.0000000000000000e+00  3.1843402417410534e-06 -8.1400101356744573e-22 0.0000000000000000e+00  2.4358009896365139e-20 -9.2458414528087578e-22 0.0000000000000000e+00  3.5004016165593525e-06 9.8380380027625581e-10 0.0000000000000000e+00  2.4767342217252477e-20 1.6506275024098166e-22 0.0000000000000000e+00  2.2778236786039692e-20 -5.1768719968272028e-23 0.0000000000000000e+00  3.5038481807485388e-06 -4.4690234764589351e-10 0.0000000000000000e+00  3.5076526100275465e-06 3.7576664575799774e-10 0.0000000000000000e+00  3.1807035999951027e-06 1.1594801410690717e-21 0.0000000000000000e+00  2.3968792552225184e-20 -3.0562844779474787e-22 0.0000000000000000e+00  1.3035260383889623e-06 -1.2886833174475395e-07 0.0000000000000000e+00  2.5971893917398729e-20 8.3388135138272557e-22 0.0000000000000000e+00  3.1017646362832445e-20 -1.1303417010278181e-21 0.0000000000000000e+00  3.5039990242512584e-06 -1.5695028253997550e-09 0.0000000000000000e+00  3.4917483126682398e-06 -4.2540024024138598e-09 0.0000000000000000e+00  3.5086112828272918e-06 2.4078912855685691e-11 0.0000000000000000e+00  3.5019904445206603e-06 2.2097545315631710e-09 0.0000000000000000e+00  2.4155387110153804e-20 2.7841763947110444e-23 0.0000000000000000e+00  2.6041518017664080e-20 6.8189563058604737e-23 0.0000000000000000e+00  2.3317156501659448e-20 -4.6078743781116995e-22 0.0000000000000000e+00  2.1938846444562892e-20 4.8623796379685533e-22 0.0000000000000000e+00  3.5013408632485622e-06 -5.6348728342598261e-10 0.0000000000000000e+00  3.5017769236170774e-06 1.3255056369809760e-09 0.0000000000000000e+00  3.5009532013493494e-06 -1.1566354315834054e-09 0.0000000000000000e+00  3.1741994900683573e-06 9.4586539670163113e-07 0.0000000000000000e+00  3.5058232831612982e-06 -1.0078705277207858e-09 0.0000000000000000e+00  3.5000985439669873e-06 1.1328704076660400e-09 0.0000000000000000e+00  3.5049620543239991e-06 1.0275986287636290e-09 0.0000000000000000e+00  3.4854685839795635e-06 3.9187591995087817e-09 0.0000000000000000e+00  3.5033679012889807e-06 2.3348360918031360e-10 0.0000000000000000e+00  3.4922830386997798e-06 9.6294421911361804e-10 0.0000000000000000e+00  3.5004399667387816e-06 6.2763195851807282e-10 0.0000000000000000e+00  3.4854320841070049e-06 2.5552514688144746e-10 0.0000000000000000e+00  3.5044627368473472e-06 -3.3635331998681669e-09 0.0000000000000000e+00  3.4940069653043153e-06 2.0501312881913063e-09 0.0000000000000000e+00  3.4907783186505277e-06 -1.2906682004346726e-09 0.0000000000000000e+00  3.4988118690457089e-06 1.4332494578087207e-09 0.0000000000000000e+00  3.5037545323108954e-06 4.3691493152307283e-09 0.0000000000000000e+00  3.4801396180641893e-06 -4.0516441454689986e-09 0.0000000000000000e+00  3.4798387768001143e-06 3.7904981980250115e-09 0.0000000000000000e+00  3.4855474457617037e-06 -5.4076242568730752e-10 0.0000000000000000e+00  3.4783666293664972e-06 -2.5357485251026060e-09 0.0000000000000000e+00  3.4872360134027810e-06 -2.1322961368212743e-09 0.0000000000000000e+00  3.5042461225402754e-06 -9.5396373746695810e-10 0.0000000000000000e+00  3.5062576442959634e-06 -6.4756457145524228e-10 0.0000000000000000e+00  3.5077962498765499e-06 8.2279028707400322e-10 0.0000000000000000e+00  3.4907918139371940e-06 -3.3065322568245358e-09 0.0000000000000000e+00  3.2127834171829022e-06 -1.9730702770090423e-07 0.0000000000000000e+00  3.5887759487977638e-06 -1.0659705092764038e-07 0.0000000000000000e+00  3.4835622750067628e-06 -3.4229539458105545e-08 0.0000000000000000e+00  3.5055104034284037e-06 -1.0691639757431435e-09 0.0000000000000000e+00  3.5073768795417785e-06 -2.3540539093663263e-09 0.0000000000000000e+00  3.5074676696627679e-06 -5.5568672538536986e-10 0.0000000000000000e+00  2.1898269403132644e-21 -8.9868222485583330e-21 0.0000000000000000e+00  3.2949032376733355e-21 7.4338891312769277e-21 0.0000000000000000e+00  3.5055951507291386e-06 1.6877801059344900e-09 0.0000000000000000e+00  3.5048368325844283e-06 -5.6046588072687404e-09 0.0000000000000000e+00  3.5080086392124009e-06 6.8249620524114716e-10 0.0000000000000000e+00  3.4809071400178826e-06 1.5552046537166228e-09 0.0000000000000000e+00  3.4876632675927328e-06 1.8779288823358190e-09 0.0000000000000000e+00  3.5068179170787369e-06 -4.7138834389976963e-08 0.0000000000000000e+00  3.4623434537843761e-06 -2.1761227851784397e-07 0.0000000000000000e+00  3.4161056932378269e-06 3.7400695398597713e-09 0.0000000000000000e+00  3.4828537231785618e-06 3.0390393306609773e-09 0.0000000000000000e+00  3.4837099924416892e-06 -2.9988190858561202e-10 0.0000000000000000e+00  3.3480161322417415e-06 1.4373601828574872e-09 0.0000000000000000e+00  3.4931626784818044e-06 4.5876620333975078e-08 0.0000000000000000e+00  3.5047422415378569e-06 -4.8856223420176807e-10 0.0000000000000000e+00  3.4702761914270005e-06 4.1173737296129813e-09 0.0000000000000000e+00  2.7007453766508827e-08 -4.1274788124198112e-06 0.0000000000000000e+00  3.5053420456512392e-06 2.1660336925592161e-09 0.0000000000000000e+00  3.9252849081879739e-08 3.5726859066326574e-06 0.0000000000000000e+00  -1.3827903064549308e-19 -1.5534734727819675e-19 0.0000000000000000e+00  -2.7940064010668652e-21 1.9969345242142873e-20 0.0000000000000000e+00  1.4110168767131979e-21 2.3550553985624626e-20 0.0000000000000000e+00  1.2944177251222722e-21 -2.4600027180945096e-20 0.0000000000000000e+00  -2.9097803753622032e-21 -2.6603706289025859e-20 0.0000000000000000e+00  -1.5926615962398946e-19 1.3037897907220752e-19 0.0000000000000000e+00  3.4936823181337454e-06 -2.4262901238804891e-09 0.0000000000000000e+00  3.3696413251549149e-06 -2.3659992002990945e-09 0.0000000000000000e+00  3.3701050057959632e-06 -8.1107942734141004e-09 0.0000000000000000e+00  3.3664379347598019e-06 1.1857089062580162e-09 0.0000000000000000e+00  3.3681623623535277e-06 -4.6321148204330902e-10 0.0000000000000000e+00  3.3653172449457462e-06 3.7072308002290286e-09 0.0000000000000000e+00  3.4756103693862839e-06 4.6029166798515080e-09 0.0000000000000000e+00  3.4906198062412796e-06 5.0804004106018956e-08 0.0000000000000000e+00  3.4767255565114864e-06 -6.0665140345090901e-10 0.0000000000000000e+00  3.5009739195119806e-06 -2.0055085509407963e-09 0.0000000000000000e+00  3.5061249049595256e-06 9.8600303327187462e-10 0.0000000000000000e+00  3.5072617050954633e-06 -7.7184119169950411e-10 0.0000000000000000e+00  -6.3605907984870630e-07 5.1819446926967975e-06 0.0000000000000000e+00  -1.2995811612464067e-06 -5.3985295245834575e-06 0.0000000000000000e+00  3.3762489445923751e-06 -1.1492079708468382e-08 0.0000000000000000e+00  3.4696176682516543e-06 4.3388022966877884e-09 0.0000000000000000e+00  3.5076519963529237e-06 -7.0431516782312635e-10 0.0000000000000000e+00  3.5068976550303144e-06 -8.0079788104892337e-10 0.0000000000000000e+00  2.4087014225090894e-20 2.9134365632174932e-22 0.0000000000000000e+00  3.1018041896932617e-06 2.2546633693518421e-07 0.0000000000000000e+00  1.4416233425079506e-05 1.6880901578691272e-05 0.0000000000000000e+00  1.4644417675740203e-05 -1.8008983001136359e-05 0.0000000000000000e+00  3.5089508190894088e-06 -5.6389328752111711e-10 0.0000000000000000e+00  3.3411937343763810e-06 3.3666518760091599e-09 0.0000000000000000e+00  2.3974346629303915e-20 6.8202757072456072e-23 0.0000000000000000e+00  3.3563140527612375e-06 -5.3987498336750866e-09 0.0000000000000000e+00  3.5089834749419364e-06 6.1907015862265371e-10 0.0000000000000000e+00  3.4610935124853752e-06 2.7854519447032796e-07 0.0000000000000000e+00  3.5029582411780304e-06 1.4347372892806778e-10 0.0000000000000000e+00  2.5647031123416279e-20 -2.4638180662353504e-22 0.0000000000000000e+00  3.5071226963045630e-06 1.4082103658070168e-09 0.0000000000000000e+00  3.5057766581636402e-06 -1.5633527277571884e-09 0.0000000000000000e+00  3.4769130004823292e-06 -1.1858283218723243e-09 0.0000000000000000e+00  3.4863212568142125e-06 6.6473811979133182e-10 0.0000000000000000e+00  3.4776932684432861e-06 -2.6367083068035154e-09 0.0000000000000000e+00  2.5483017661399031e-20 2.0724863508191032e-22 0.0000000000000000e+00  3.4883682753326795e-06 -1.0145023920267983e-09 0.0000000000000000e+00  3.5074872408755011e-06 2.7924446091998533e-09 0.0000000000000000e+00  3.3740691478278837e-06 7.9172975084865633e-09 0.0000000000000000e+00  3.5069329049444127e-06 -1.5166254325598528e-10 0.0000000000000000e+00  3.5074347674197159e-06 -1.7382464462594370e-08 0.0000000000000000e+00  3.5043170563211941e-06 4.8447080543415179e-10 0.0000000000000000e+00  3.5047643548065613e-06 -8.2366439265845348e-10 0.0000000000000000e+00  3.3826567855943538e-06 -5.2992985322496567e-08 0.0000000000000000e+00  3.4860649121962856e-06 2.1261498264598701e-09 0.0000000000000000e+00  3.4846973138268094e-06 -3.1192398369175633e-09 0.0000000000000000e+00  3.4812142196218347e-06 -2.2549871188412344e-09 0.0000000000000000e+00  3.4873009640565278e-06 -5.6794265029289062e-09 0.0000000000000000e+00  3.5040855019899048e-06 1.0826727021644260e-09 0.0000000000000000e+00  2.5992856158793233e-20 -3.0373552953726923e-22 0.0000000000000000e+00  3.2445567554788550e-06 -1.8766175465598986e-06 0.0000000000000000e+00  1.9161718371996315e-06 -3.5325548250322709e-06 0.0000000000000000e+00  8.1702414873697870e-07 -2.6553603149819139e-06 0.0000000000000000e+00  2.5074832322598056e-06 -8.9880224865627825e-07 0.0000000000000000e+00  3.5080086061700505e-06 1.8300790613158747e-10 0.0000000000000000e+00  3.5051350323586326e-06 -1.8496971657956460e-09 0.0000000000000000e+00  3.5047014254058699e-06 2.9782371315470416e-10 0.0000000000000000e+00  3.5046228114455636e-06 -6.7023463105986840e-10 0.0000000000000000e+00  3.4999964016459739e-06 -7.5208285407995338e-09 0.0000000000000000e+00  3.4840785729124679e-06 7.7622407897420035e-09 0.0000000000000000e+00  2.6700163411733484e-20 6.5343020397691132e-23 0.0000000000000000e+00  3.4815811162705105e-06 4.8600393189949143e-09 0.0000000000000000e+00  3.5047423945914606e-06 -1.0381131960716380e-09 0.0000000000000000e+00  3.5046407780640469e-06 1.6248520445501158e-11 0.0000000000000000e+00  3.4807708101077498e-06 3.1240117619957617e-09 0.000000