<?xml version="1.0"?>
<VTKFile type="UnstructuredGrid"  version="0.1"  >
<UnstructuredGrid>
<Piece  NumberOfPoints="1079" NumberOfCells="1944">
<Points>
<DataArray  type="Float64"  NumberOfComponents="3"  format="ascii">0.08500000000000001 0.02 0  0.005 0.02 0  0.005 0.03 0  0 0.03 0  0 0 0  0.005 0 0  0.005 0.01 0  0.08500000000000001 0.01 0  0 0.015 0  0 0.0075 0  0 0.0225 0  0.04500000000000001 0.02 0  0.04500000000000001 0.01 0  0.025 0.01 0  0.025 0.02 0  0.065 0.02 0  0.065 0.01 0  0.035 0.02 0  0.035 0.01 0  0.07500000000000001 0.02 0  0.07500000000000001 0.01 0  0.015 0.02 0  0.015 0.01 0  0.05500000000000001 0.01 0  0.05500000000000001 0.02 0  0.07000000000000001 0.01 0  0.07000000000000001 0.02 0  0.05 0.01 0  0.03 0.01 0  0.03 0.02 0  0.04000000000000001 0.01 0  0.01 0.01 0  0.02 0.02 0  0.06 0.015 0  0.08500000000000001 0.015 0  0.05 0.02 0  0.07250000000000001 0.015 0  0.04000000000000001 0.02 0  0.03750000000000001 0.015 0  0.0525 0.015 0  0.02 0.01 0  0.01 0.02 0  0.0275 0.015 0  0.0125 0.015 0  0.08000000000000002 0.01 0  0.08000000000000002 0.02 0  0.0325 0.014375 0  0.04291666666666667 0.015 0  0.065 0.015 0  0.005 0.005 0  0.005 0.015 0  0.02208333333333334 0.015 0  0.07791666666666668 0.015 0  0.005 0.025 0  0.06 0.01 0  0.06 0.02 0  0.01729166666666667 0.01572916666666667 0  0.04770833333333334 0.01427083333333334 0  0.06875000000000001 0.01625 0  0.008750000000000001 0.01625 0  0.05625000000000001 0.01625 0  0 0.00375 0  0 0.01875 0  0 0.01125 0  0 0.02625 0  0.08145833333333334 0.01354166666666667 0  0.0675 0.01 0  0.0075 0.0125 0  0.0625 0.0175 0  0.0575 0.0125 0  0.0625 0.0125 0  0.08207465277777778 0.01707465277777778 0  0.06767857142857144 0.01321428571428571 0  0.0175 0.01 0  0.01875 0.01291382575757576 0  0.0475 0.02 0  0.04564168086314595 0.01679860519591141 0  0.00296875 0.0125 0  0.0025 0.03 0  0.0025 0 0  0.00296875 0.0175 0  0.01521990740740741 0.0132349537037037 0  0.0497800925925926 0.0167650462962963 0  0.0325 0.02 0  0.03474264705882353 0.01674632352941176 0  0.03750000000000001 0.02 0  0.03025735294117647 0.01674632352941176 0  0.0275 0.02 0  0.0525 0.02 0  0.0125 0.01 0  0.04020833333333334 0.01322916666666667 0  0.03750000000000001 0.01 0  0.0225 0.02 0  0.02479166666666667 0.01677083333333333 0  0.07520833333333335 0.01322916666666667 0  0.07250000000000001 0.01 0  0.07520833333333335 0.01677083333333334 0  0.07250000000000001 0.02 0  0.04020833333333334 0.01677083333333333 0  0.0225 0.01 0  0.02375 0.01262152777777778 0  0.04250000000000001 0.02 0  0.04250000000000001 0.01 0  0.07750000000000001 0.01 0  0.07750000000000001 0.02 0  0.05036151960784314 0.01294424019607843 0  0.0705560064935065 0.01284699675324675 0  0.05458333333333334 0.01291666666666666 0  0.0021875 0.024375 0  0.005 0.0275 0  0.01125 0.0175 0  0.01463848039215686 0.01705575980392157 0  0.01 0.01375 0  0.03625 0.0125 0  0.0021875 0.009375 0  0.05375000000000001 0.0175 0  0.07125000000000001 0.0175 0  0.005 0.0025 0  0.0021875 0.005625 0  0.02655220103578155 0.01234889948210923 0  0.002187499999999999 0.020625 0  0.02979166666666667 0.01302083333333333 0  0.0525 0.01 0  0.07895833333333334 0.0125 0  0.01994277885235332 0.01704213007736944 0  0.07934656179076068 0.01733823814273861 0  0.04505722114764669 0.01295786992263056 0  0.06625 0.0175 0  0.006250000000000001 0.0175 0  0.05750000000000001 0.02 0  0.05875000000000001 0.0175 0  0.005 0.0225 0  0.005 0.0075 0  0.002375 0.027375 0  0.002375 0.002625000000000001 0  0.0475 0.01 0  0.0175 0.02 0  0.0325 0.01 0  0.03375 0.0121875 0  0.04261299435028249 0.01749205508474576 0  0.08500000000000001 0.0125 0  0.08250000000000002 0.01 0  0.02121963399965531 0.01224824108143494 0  0.0675 0.02 0  0.0125 0.02 0  0.02720152243589744 0.0175 0  0.03715165441176471 0.0175 0  0.08500000000000001 0.0175 0  0.0275 0.01 0  0.0025 0.0149560546875 0  0.0075 0.01 0  0.0075 0.02 0  0.06526785714285716 0.0125 0  0.01281031447005516 0.0125 0  0.0625 0.015 0  0.06 0.0125 0  0.05750000000000001 0.01 0  0.0625 0.02 0  0.0625 0.01 0  0.08250000000000002 0.02 0  0.04260103740101855 0.01252623201412851 0  0.02240052247582197 0.01750164767101344 0  0.07293583459427785 0.01238479732953041 0  0.005234374999999999 0.012265625 0  0.03528131980640358 0.01454684009679821 0  0.0325 0.01760027210036557 0  0.02532593822924343 0.01428227733767297 0  0.08009952069819683 0.01527145502895417 0  0.01987282359856536 0.01482587683689801 0  0.04828232595121382 0.01210233572595705 0  0.01671767404878618 0.01789766427404295 0  0.05125 0.01829007549029352 0  0.05247215456215357 0.01288882122882024 0  0.07338729919678716 0.01799385040160642 0  0.03838729919678716 0.01200614959839357 0  0.07717482110586968 0.01780301674207099 0  0.04771860040890012 0.01773306039388322 0  0.03125 0.01160380747126437 0  0.06875000000000001 0.01154265873015873 0  0.07625000000000001 0.01154065860215054 0  0.01625 0.01153997817696946 0  0.068125 0.018125 0  0.05437500000000001 0.015625 0  0.066875 0.015625 0  0.07039794950204951 0.01494384850614853 0  0.05687500000000001 0.018125 0  0.006875 0.015625 0  0.008749999999999999 0.01833333333333333 0  0.010625 0.015625 0  0.05625 0.01416666666666667 0  0.05812500000000001 0.015625 0  0.0449088595298192 0.01494528408816316 0  0 0.016875 0  0 0.013125 0  0.04962452342047931 0.01478673066448802 0  0.0153754765795207 0.01521326933551198 0  0.0771774565913315 0.01322498191305479 0  0.01857756431135545 0.01840228599899994 0  0.04642243568864456 0.01159771400100006 0  0.08125000000000002 0.01155637254901961 0  0.08317650804863432 0.0118234919513657 0  0.08288217288011697 0.01511353252923977 0  0.02837253504384828 0.0117177464035174 0  0.03896057962520807 0.01831163685754031 0  0.01125 0.0114244162490927 0  0.00935910490099115 0.0119067901980177 0  0.02946078431372549 0.01495404411764706 0  0.02875 0.0185829434466942 0  0.002968749999999999 0.0225 0  0.064375 0.016875 0  0.00296875 0.0075 0  0 0.001875 0  0 0.005625 0  0 0.009375 0  0 0.020625 0  0 0.024375 0  0 0.028125 0  0.06062500000000001 0.01812500000000001 0  0.008303571428571429 0.01446428571428572 0  0.01375 0.01865917058160413 0  0.05137790313978056 0.01143372888932909 0  0.04125000000000001 0.01131513063942604 0  0.04101690263896279 0.01844430285842771 0  0.02399563533148224 0.01844349395710867 0  0.08125000000000002 0.01868815426145731 0  0.05354684380692146 0.01145463537600848 0  0.01699195823639423 0.01315138909884649 0  0.07598357371794873 0.015 0  0.04098357371794872 0.015 0  0.003744047619047619 0.00375 0  0.003344630281690141 0.02580853873239437 0  0.04625 0.0187354532243972 0  0.06388392857142858 0.01138392857142858 0  0.06375 0.01375 0  0.05875 0.01375 0  0.06375 0.02 0  0.00622802734375 0.01372802734375 0  0.003630681818181818 0.001369318181818182 0  0.003630681818181818 0.02863068181818182 0  0.06125 0.01625 0  0.06125 0.01125 0  0.05625000000000001 0.01 0  0.05875 0.01125 0  0.06125 0.01375 0  0.08337864763241221 0.0183786476324122 0  0.05213634138653413 0.01674432930673294 0  0.04375000000000001 0.01 0  0.07424178685897437 0.01529258578431373 0  0.03924178685897436 0.01529258578431372 0  0.03410139294454583 0.01843406022904556 0  0.03089860705545417 0.01843406022904556 0  0.02094160484316717 0.01850229584291991 0  0.04375000000000001 0.02 0  0.04437042160883325 0.01820701498672512 0  0.04816311705429156 0.01600061344661149 0  0.07151224904251052 0.0114127410511319 0  0.04395528506193162 0.01639387970349481 0  0.0128750358694518 0.0167500179347259 0  0.02855808448399799 0.01642839899839741 0  0.02812690373330794 0.01340955081400569 0  0.08358500641945087 0.01351822349116885 0  0.05590277777777778 0.01173611111111111 0  0.06683110430364615 0.01164926404662283 0  0.02573206694914602 0.01842532451809762 0  0.01438126661842046 0.01166701193099454 0  0.02384283211216029 0.01526549696571563 0  0.03625 0.02 0  0.004609375000000001 0.0182421875 0  0.003398437500000001 0.01943359375 0  0.001728307845744682 0.01894718251329787 0  0.004377805359085963 0.01656966216675735 0  0.04649673309852075 0.0153889662370871 0  0.03615513600614297 0.01592654988586041 0  0.03316985071935832 0.01598763605018279 0  0.03110111603888768 0.01529816275177977 0  0.01370614113484869 0.0138804542047638 0  0.04930041102671841 0.01842260568883502 0  0.07875000000000001 0.02 0  0.0745395359848485 0.01165101111925709 0  0.03860755698543604 0.01373741558556884 0  0.02605038706571737 0.01573944002207753 0  0.07559826163500957 0.01841729376139847 0  0.04437500000000001 0.01149157931286774 0  0.06874116707361365 0.01454618473032123 0  0.003761917372881356 0.0239307468220339 0  0.003984374999999999 0.01125 0  0.003768503289473684 0.01392539576480263 0  0.001796875 0.0111328125 0  0.003761917372881356 0.008930746822033899 0  0.005 0.00625 0  0.003761917372881355 0.0210692531779661 0  0.06633928571428571 0.01410714285714285 0  0.006484375 0.01125 0  0.08364120589325512 0.01657288979763549 0  0.03576267476503373 0.0184116442851204 0  0.07370875846579374 0.0137848203678562 0  0.06964285714285715 0.01758928571428571 0  0.05520833333333334 0.01833333333333333 0  0.06491071428571429 0.01839285714285714 0  0.0510098951944636 0.01559941474766356 0  0.01786087179886325 0.0115702210443714 0  0.01972197383235524 0.01160576093166696 0  0.01804697593127788 0.01433503795474974 0  0.001644074528704677 0.01642892723865279 0  0.00125 0.03 0  0.001497685185185185 0.001267746913580247 0  0.07315451164202422 0.01643443118912983 0  0.001233906745910645 0.0140625 0  0.01162635071030191 0.01362229857939618 0  0.01528023503083844 0.01845923557506155 0  0.06625 0.02 0  0.07695012019230771 0.01624387078484555 0  0.03139091092855769 0.01320776147621796 0  0.03857339107781042 0.01675295051810485 0  0.001754993120977522 0.02590789105493891 0  0.002288757784711197 0.00412546923654445 0  0.07914382119690884 0.01404430049871201 0  0.001391810103286306 0.01257390899021902 0  0.0419501201923077 0.01614675005432421 0  0.001484375 0.007018229166666667 0  0.001484375 0.02201822916666666 0  0.048
[...]
<PointData  Vectors="velocity"> 
<DataArray  type="Float64"  Name="velocity"  NumberOfComponents="3" format="ascii">5.9275248065194512e-07 4.4924679459483838e-21 0.0000000000000000e+00  1.2999747368549458e-20 -1.3380118634066395e-20 0.0000000000000000e+00  5.1957282225987195e-19 -2.9150530628251947e-05 0.0000000000000000e+00  -6.1004570175785984e-19 -2.9150530628251896e-05 0.0000000000000000e+00  -5.7385654995866536e-19 2.9150530628251906e-05 0.0000000000000000e+00  5.6610173171598082e-19 2.9150530628251883e-05 0.0000000000000000e+00  1.1876424274080367e-20 1.1075418040844164e-20 0.0000000000000000e+00  6.0877458467144251e-07 -4.6214469816697300e-21 0.0000000000000000e+00  1.3637830860364130e-21 -8.4447216554338070e-23 0.0000000000000000e+00  -1.5292544333426509e-22 1.0669470864106651e-20 0.0000000000000000e+00  6.3479944295388088e-23 -1.2320603856809062e-20 0.0000000000000000e+00  1.1724220595148622e-20 -4.2269609458037284e-23 0.0000000000000000e+00  9.6967209550317632e-21 5.8649995972177949e-23 0.0000000000000000e+00  1.1892555379411140e-20 3.4576315047874146e-23 0.0000000000000000e+00  9.3683916965990719e-21 -3.8258648557575760e-23 0.0000000000000000e+00  1.0618265780260178e-20 3.0030193579112218e-23 0.0000000000000000e+00  1.1043884352152673e-20 1.4545434003022791e-23 0.0000000000000000e+00  8.5395873184612414e-21 -1.7796049171486835e-23 0.0000000000000000e+00  1.3001200864547824e-20 -1.2521271520572354e-23 0.0000000000000000e+00  1.0655293961783240e-20 6.8349779762448128e-23 0.0000000000000000e+00  1.0560729177053026e-20 4.1868562502309110e-23 0.0000000000000000e+00  9.6275797015784579e-21 -2.2881813579146845e-23 0.0000000000000000e+00  8.9139931520898093e-21 -2.2765416367541407e-23 0.0000000000000000e+00  1.1400789097001227e-20 -1.2659636729842065e-22 0.0000000000000000e+00  9.9130039014985220e-21 4.4032905166403421e-23 0.0000000000000000e+00  1.0119921045710208e-20 1.5443987930981362e-23 0.0000000000000000e+00  1.1879905371961989e-20 -4.7046095263847952e-23 0.0000000000000000e+00  1.0908221645287931e-20 3.5489679781341860e-23 0.0000000000000000e+00  1.0678275982454862e-20 3.1368792186771934e-24 0.0000000000000000e+00  9.1939901199916251e-21 -2.4604474423410460e-23 0.0000000000000000e+00  1.0163294833469648e-20 3.4593735091136085e-23 0.0000000000000000e+00  1.0527933316886808e-20 6.2159807434025466e-23 0.0000000000000000e+00  1.0002117748617235e-20 -1.9792430783396564e-23 0.0000000000000000e+00  1.5124425818121152e-06 -2.2115685421131261e-10 0.0000000000000000e+00  1.4525957137069240e-06 2.9170449918265161e-24 0.0000000000000000e+00  9.5284440261994415e-21 6.5657904697175933e-24 0.0000000000000000e+00  1.5124147574030331e-06 5.0987483358689143e-10 0.0000000000000000e+00  1.0829546558895682e-20 -1.0088500351274772e-22 0.0000000000000000e+00  1.5111557422383972e-06 -7.3563000957520638e-10 0.0000000000000000e+00  1.5108671917103361e-06 -8.2267525760295541e-11 0.0000000000000000e+00  1.0219301224337787e-20 4.9639041489881318e-24 0.0000000000000000e+00  1.1153168925113939e-20 -2.0912191734588635e-22 0.0000000000000000e+00  1.5110620855954375e-06 -3.9751783503946773e-11 0.0000000000000000e+00  1.5079105591816440e-06 -5.9267959424053680e-09 0.0000000000000000e+00  9.6376363749258939e-21 -3.5916119752103498e-23 0.0000000000000000e+00  1.0460558242558665e-20 1.9438376665361390e-22 0.0000000000000000e+00  1.5107122596433064e-06 4.4209773466257639e-11 0.0000000000000000e+00  1.5122437345997778e-06 -1.4747110944421760e-10 0.0000000000000000e+00  1.5118360383611271e-06 -1.2721823920562927e-10 0.0000000000000000e+00  -7.7750618385659014e-22 1.3286025669741412e-20 0.0000000000000000e+00  1.1424418026902805e-06 -6.0249740573580493e-08 0.0000000000000000e+00  1.5104752327553164e-06 3.6654174347476402e-10 0.0000000000000000e+00  1.5100817790219498e-06 7.7738103747735399e-11 0.0000000000000000e+00  -1.1983247025025324e-21 -1.6163293115659992e-20 0.0000000000000000e+00  9.7339124817031976e-21 1.6723851190685603e-23 0.0000000000000000e+00  1.1374050039204457e-20 1.3529207072723988e-22 0.0000000000000000e+00  1.5111913553277013e-06 -5.4955385100162496e-10 0.0000000000000000e+00  1.5116693192364381e-06 3.9975793360068717e-10 0.0000000000000000e+00  1.5118473300335931e-06 -3.8575710399954759e-10 0.0000000000000000e+00  1.4886868566506861e-06 -4.8286326212097498e-08 0.0000000000000000e+00  1.5107722129715008e-06 -1.1364748741139965e-09 0.0000000000000000e+00  -6.4957273774527638e-21 2.0694733327289154e-21 0.0000000000000000e+00  6.0272823555303019e-22 -6.4100237276618994e-21 0.0000000000000000e+00  8.5493895339044081e-22 6.8035141975070873e-21 0.0000000000000000e+00  -7.7582298877281337e-21 1.9127433133338945e-21 0.0000000000000000e+00  1.4962022440335966e-06 -1.4452625645562839e-08 0.0000000000000000e+00  9.2352669896796120e-21 -2.7557491559916379e-23 0.0000000000000000e+00  1.4898270849830761e-06 8.5592650334017244e-08 0.0000000000000000e+00  1.5090308442612349e-06 4.1655419026405848e-11 0.0000000000000000e+00  1.5097059068617630e-06 1.2791382206207313e-10 0.0000000000000000e+00  1.5110586850671445e-06 -6.4808124893970478e-10 0.0000000000000000e+00  1.4945717177206709e-06 2.7635670132708732e-08 0.0000000000000000e+00  1.5108925002662768e-06 -3.0623103161797321e-10 0.0000000000000000e+00  1.0449886166019289e-20 -2.8265796902855592e-24 0.0000000000000000e+00  1.5096724909303220e-06 -3.2192678035238581e-11 0.0000000000000000e+00  1.2271157857622436e-20 1.7718538480244449e-22 0.0000000000000000e+00  1.5122414131105881e-06 -1.1522748645018735e-09 0.0000000000000000e+00  7.2260720091139998e-07 5.8867498641997182e-07 0.0000000000000000e+00  -3.3316153512308021e-20 -2.9150530628252032e-05 0.0000000000000000e+00  -5.1065618915103028e-20 2.9150530628252052e-05 0.0000000000000000e+00  7.4871119888691750e-07 -7.3708651645750145e-07 0.0000000000000000e+00  1.5090754697233432e-06 -2.1427330561087320e-09 0.0000000000000000e+00  1.5104058043648800e-06 1.3576472352900823e-09 0.0000000000000000e+00  1.0340655524678566e-20 9.2288888196240675e-23 0.0000000000000000e+00  1.5102759129302912e-06 -4.6585179425156298e-10 0.0000000000000000e+00  1.0844092517505530e-20 6.6858567831385577e-23 0.0000000000000000e+00  1.5105673504297861e-06 -4.8019839102467031e-10 0.0000000000000000e+00  1.2354806561138305e-20 2.2867829243345053e-23 0.0000000000000000e+00  1.0916837786818749e-20 -1.2661059202875471e-24 0.0000000000000000e+00  1.1435513728336722e-20 6.4602749068388232e-23 0.0000000000000000e+00  1.5110550804449044e-06 4.6749138693893594e-10 0.0000000000000000e+00  1.0174072552765464e-20 3.5920990318491674e-23 0.0000000000000000e+00  1.1015845266493586e-20 2.8482583298344392e-23 0.0000000000000000e+00  1.5101033586264074e-06 1.1489102964256959e-10 0.0000000000000000e+00  1.5115737325097665e-06 2.4071185512859063e-10 0.0000000000000000e+00  1.0617001370315382e-20 4.6779242332370814e-24 0.0000000000000000e+00  1.5112842199479614e-06 1.0370012856123393e-09 0.0000000000000000e+00  1.1428801057393522e-20 1.2551679360806153e-22 0.0000000000000000e+00  1.5119833191261254e-06 -1.9192008774002110e-09 0.0000000000000000e+00  9.4674900583665730e-21 3.3019984857584310e-24 0.0000000000000000e+00  1.5087960865852505e-06 1.0166763613094436e-09 0.0000000000000000e+00  1.0845680596423171e-20 -1.4672186954035674e-24 0.0000000000000000e+00  1.0123682215716643e-20 9.6968088713880300e-23 0.0000000000000000e+00  1.1366733788604890e-20 1.8308771791034237e-22 0.0000000000000000e+00  1.1880972613039430e-20 -6.8767873539408987e-23 0.0000000000000000e+00  1.5113788300193311e-06 1.1449911818053071e-09 0.0000000000000000e+00  1.5117320284548122e-06 1.7872628136635968e-09 0.0000000000000000e+00  1.5112911962328712e-06 1.8635135943439630e-10 0.0000000000000000e+00  -3.1888886504061468e-07 -1.6619311156181708e-06 0.0000000000000000e+00  2.1991888437251314e-21 -2.3196059957489421e-20 0.0000000000000000e+00  1.5167655330206818e-06 -1.2893664229071486e-08 0.0000000000000000e+00  1.5134692995076337e-06 -4.2461056671372403e-09 0.0000000000000000e+00  1.4932942572758873e-06 3.5716971573507032e-09 0.0000000000000000e+00  1.5076877387362518e-06 -1.6186838100384174e-09 0.0000000000000000e+00  2.5332331538054342e-07 1.3486851524091534e-06 0.0000000000000000e+00  1.5090044255453756e-06 -2.7309646325648423e-12 0.0000000000000000e+00  1.5122117005741541e-06 -1.5902747572376566e-12 0.0000000000000000e+00  4.7941154579407949e-21 1.2810108711026463e-20 0.0000000000000000e+00  -2.8092732957609116e-07 1.4334637837262104e-06 0.0000000000000000e+00  1.5087945418014357e-06 -1.0339059142942885e-09 0.0000000000000000e+00  2.5251076606190948e-07 -1.5573713780696511e-06 0.0000000000000000e+00  1.5113950460365275e-06 -2.5194653026020516e-10 0.0000000000000000e+00  9.6663645017652785e-21 -8.5118542537026806e-23 0.0000000000000000e+00  1.5084588998982019e-06 -4.6053086170570603e-09 0.0000000000000000e+00  1.5099091653979175e-06 6.6336533021706451e-12 0.0000000000000000e+00  1.5092433397972681e-06 6.9659311153775172e-09 0.0000000000000000e+00  1.5117673490788294e-06 -3.3657329884112707e-10 0.0000000000000000e+00  1.5111151468540156e-06 -1.7848826631817438e-09 0.0000000000000000e+00  1.5088580707878599e-06 -2.7861225956554454e-07 0.0000000000000000e+00  1.1095333327681029e-20 -1.5335404347873550e-22 0.0000000000000000e+00  1.5083674669870682e-06 -5.3916626608244950e-10 0.0000000000000000e+00  1.3215861273332515e-22 -1.4726955630836886e-20 0.0000000000000000e+00  1.1589292726176336e-22 1.2253643119202932e-20 0.0000000000000000e+00  -3.4880956089135787e-06 -3.8056096910065731e-06 0.0000000000000000e+00  -2.8341252719579337e-06 3.1229443841641167e-06 0.0000000000000000e+00  9.8249321893160690e-21 3.1041548162476091e-24 0.0000000000000000e+00  1.1813367074399468e-20 1.7145603654136745e-22 0.0000000000000000e+00  1.0233289273494799e-20 1.7156080785443723e-23 0.0000000000000000e+00  1.5084384514573513e-06 1.8389849558035233e-09 0.0000000000000000e+00  1.5090695185047830e-06 1.1088077536102465e-09 0.0000000000000000e+00  1.3727860087877278e-06 -3.8808345610234416e-22 0.0000000000000000e+00  1.0011014538558448e-20 -4.1147979741487251e-22 0.0000000000000000e+00  1.5090391348644350e-06 4.2302132303369461e-10 0.0000000000000000e+00  1.1684716063159745e-20 7.0025659574248525e-23 0.0000000000000000e+00  1.0146669113781318e-20 -2.2918443735953763e-23 0.0000000000000000e+00  1.5105266676704033e-06 -1.9291489702386301e-10 0.0000000000000000e+00  1.5121663383166567e-06 1.6217318985635633e-10 0.0000000000000000e+00  1.3712180780641333e-06 4.4327316629073215e-22 0.0000000000000000e+00  1.0830919887352414e-20 -1.3555935904044571e-22 0.0000000000000000e+00  5.6195311094930829e-07 -5.6020800077374665e-08 0.0000000000000000e+00  1.1533931792431292e-20 3.5444238138855069e-22 0.0000000000000000e+00  1.3122480624031006e-20 -5.2180039153664574e-22 0.0000000000000000e+00  1.5105914478220715e-06 -6.7648555340697603e-10 0.0000000000000000e+00  1.5052865622429623e-06 -1.8548147439683960e-09 0.0000000000000000e+00  1.5125797899829235e-06 1.0391707313016993e-11 0.0000000000000000e+00  1.5097253389059749e-06 9.5291801319838367e-10 0.0000000000000000e+00  1.0829191284620496e-20 1.2473854776821641e-23 0.0000000000000000e+00  1.2424738349977052e-20 3.2617266374388413e-23 0.0000000000000000e+00  1.0474852872871917e-20 -1.9891611598937208e-22 0.0000000000000000e+00  9.6319580409592797e-21 2.2558819291343962e-22 0.0000000000000000e+00  1.5094460330772116e-06 -2.4270242055217602e-10 0.0000000000000000e+00  1.5096344427916888e-06 5.7038813680532996e-10 0.0000000000000000e+00  1.5092786716409406e-06 -4.9835046691262929e-10 0.0000000000000000e+00  1.3681858328921946e-06 4.0744628855415748e-07 0.0000000000000000e+00  1.5113778280360545e-06 -4.3449122806397811e-10 0.0000000000000000e+00  1.5089095998563874e-06 4.8811175781614306e-10 0.0000000000000000e+00  1.5110064287210159e-06 4.4255170086814762e-10 0.0000000000000000e+00  1.5026035971297202e-06 1.6893212939848755e-09 0.0000000000000000e+00  1.5103192290995788e-06 9.7598060519394082e-11 0.0000000000000000e+00  1.5055403556222456e-06 4.1527216504764290e-10 0.0000000000000000e+00  1.5090641588285576e-06 2.6506440608302353e-10 0.0000000000000000e+00  1.5025868555530595e-06 1.1002144445145056e-10 0.0000000000000000e+00  1.5107912574665571e-06 -1.4500614460410661e-09 0.0000000000000000e+00  1.5062835074975610e-06 8.8333768703001785e-10 0.0000000000000000e+00  1.5048916757310239e-06 -5.5629887757761461e-10 0.0000000000000000e+00  1.5083549164580303e-06 6.1745168248856668e-10 0.0000000000000000e+00  1.5104858467521624e-06 1.8830926127293546e-09 0.0000000000000000e+00  1.5003052590746056e-06 -1.7466915517921012e-09 0.0000000000000000e+00  1.5001760872280391e-06 1.6342779999311809e-09 0.0000000000000000e+00  1.5026370022664766e-06 -2.3340155009698989e-10 0.0000000000000000e+00  1.4995318518402900e-06 -1.0971570711598190e-09 0.0000000000000000e+00  1.5033645219645978e-06 -9.1951738603432616e-10 0.0000000000000000e+00  1.5106979017499932e-06 -4.1122432142669063e-10 0.0000000000000000e+00  1.5115650825886771e-06 -2.7914863236549503e-10 0.0000000000000000e+00  1.5122283867012268e-06 3.5468360812124082e-10 0.0000000000000000e+00  1.5048981777535807e-06 -1.4253619976452483e-09 0.0000000000000000e+00  1.3850799194491739e-06 -8.5273629735137212e-08 0.0000000000000000e+00  1.5472526815609226e-06 -4.6016437531432531e-08 0.0000000000000000e+00  1.5017932690006543e-06 -1.4822363754909702e-08 0.0000000000000000e+00  1.5112429293439604e-06 -4.6090472170711246e-10 0.0000000000000000e+00  1.5120475612274954e-06 -1.0148463761317294e-09 0.0000000000000000e+00  1.5120867375366502e-06 -2.3958160661814481e-10 0.0000000000000000e+00  9.8115622650399520e-22 -4.0763012308861637e-21 0.0000000000000000e+00  1.5066139679861878e-21 3.2533280288082544e-21 0.0000000000000000e+00  1.5112795300466433e-06 7.2762415221296135e-10 0.0000000000000000e+00  1.5109535256253865e-06 -2.4296895891189089e-09 0.0000000000000000e+00  1.5123200956955412e-06 2.9437687324246754e-10 0.0000000000000000e+00  1.5006408387046325e-06 6.6857894044408309e-10 0.0000000000000000e+00  1.5035487669018709e-06 8.0996603385044173e-10 0.0000000000000000e+00  1.5118067383040071e-06 -2.0320327723697477e-08 0.0000000000000000e+00  1.4926365470935667e-06 -9.3811763553452777e-08 0.0000000000000000e+00  1.4727031736297648e-06 1.6121952294163278e-09 0.0000000000000000e+00  1.5014748889191977e-06 1.3101793370236930e-09 0.0000000000000000e+00  1.5018445466606901e-06 -1.2900069399634091e-10 0.0000000000000000e+00  1.4432981502794307e-06 6.0243602328116130e-10 0.0000000000000000e+00  1.5058311388512077e-06 1.9726857607623442e-08 0.0000000000000000e+00  1.5109118033306270e-06 -2.1075666887787158e-10 0.0000000000000000e+00  1.4960531844567540e-06 1.7748044178515788e-09 0.0000000000000000e+00  1.1357342840959976e-08 -1.7802353539579358e-06 0.0000000000000000e+00  1.5111704914589030e-06 9.3371611379893863e-10 0.0000000000000000e+00  1.6683449126512549e-08 1.5395207004574054e-06 0.0000000000000000e+00  -6.3082230212548345e-20 -6.3403629545707181e-20 0.0000000000000000e+00  -1.2197185304149768e-21 8.9635129211891316e-21 0.0000000000000000e+00  6.0862169968562272e-22 1.0313152143040034e-20 0.0000000000000000e+00  5.3291031691857281e-22 -1.0486374174047975e-20 0.0000000000000000e+00  -1.2990090961438407e-21 -1.1171478226837031e-20 0.0000000000000000e+00  -6.6886775016353787e-20 5.5384412807391099e-20 0.0000000000000000e+00  1.5061437624801813e-06 -1.0460290080006125e-09 0.0000000000000000e+00  1.4526429421325674e-06 -1.1566464228568557e-09 0.0000000000000000e+00  1.4528911165137651e-06 -3.5062212678885458e-09 0.0000000000000000e+00  1.4512877822916340e-06 5.1338806407697313e-10 0.0000000000000000e+00  1.4520313554373078e-06 -1.9885455707985382e-10 0.0000000000000000e+00  1.4508059494906661e-06 1.5960418139108005e-09 0.0000000000000000e+00  1.4983540371729054e-06 1.9840229238778212e-09 0.0000000000000000e+00  1.5048228407178674e-06 2.1901200050347525e-08 0.0000000000000000e+00  1.4988338665128539e-06 -2.6226794612109030e-10 0.0000000000000000e+00  1.5092827157933147e-06 -8.7119013701931098e-10 0.0000000000000000e+00  1.5115079411222660e-06 4.2509494668826848e-10 0.0000000000000000e+00  1.5119979233341592e-06 -3.3274910649298067e-10 0.0000000000000000e+00  -2.7558534465475270e-07 2.2357040406759135e-06 0.0000000000000000e+00  -5.6291045119594376e-07 -2.3301824042739121e-06 0.0000000000000000e+00  1.4555206467696408e-06 -4.9542099519970398e-09 0.0000000000000000e+00  1.4957698233262085e-06 1.8700142294602653e-09 0.0000000000000000e+00  1.5121662368125187e-06 -3.0363146815126653e-10 0.0000000000000000e+00  1.5118409494297937e-06 -3.4526247674493654e-10 0.0000000000000000e+00  1.0130265464327934e-20 1.2303960564582544e-22 0.0000000000000000e+00  1.3371146058907790e-06 9.6953472650226668e-08 0.0000000000000000e+00  6.2197373782722040e-06 7.2908609043356448e-06 0.0000000000000000e+00  6.3226653854922275e-06 -7.7811822515767577e-06 0.0000000000000000e+00  1.5127261815466115e-06 -2.4315048624413395e-10 0.0000000000000000e+00  1.4404083716316085e-06 1.4519612455780153e-09 0.0000000000000000e+00  1.0507415325539904e-20 2.8404755804872351e-23 0.0000000000000000e+00  1.4469233957281240e-06 -2.3260710881691243e-09 0.0000000000000000e+00  1.5127401873282921e-06 2.6690002437182109e-10 0.0000000000000000e+00  1.4920937871190319e-06 1.2008313202706049e-07 0.0000000000000000e+00  1.5101427221516167e-06 6.1886766462058670e-11 0.0000000000000000e+00  1.1632983887233723e-20 -1.0677875176592530e-22 0.0000000000000000e+00  1.5119380590697843e-06 6.0709279484441432e-10 0.0000000000000000e+00  1.5113577237617830e-06 -6.7397936428235883e-10 0.0000000000000000e+00  1.4989145478383774e-06 -5.1093379907055855e-10 0.0000000000000000e+00  1.5029704688432688e-06 2.8650798679124865e-10 0.0000000000000000e+00  1.4992528640244298e-06 -1.1378122437205489e-09 0.0000000000000000e+00  1.0988346794083858e-20 9.0421602485317022e-23 0.0000000000000000e+00  1.5038532400639066e-06 -4.3711149764344408e-10 0.0000000000000000e+00  1.5120952210144906e-06 1.2038046349884972e-09 0.0000000000000000e+00  1.4545776802738402e-06 3.4147091224167177e-09 0.0000000000000000e+00  1.5118561868433958e-06 -6.5406137050114941e-11 0.0000000000000000e+00  1.5120898243454722e-06 -7.5203776206239190e-09 0.0000000000000000e+00  1.5107285688388407e-06 2.0869609106996843e-10 0.0000000000000000e+00  1.5109212692051382e-06 -3.5520389677289626e-10 0.0000000000000000e+00  1.4582831487659108e-06 -2.2842644578191787e-08 0.0000000000000000e+00  1.5028596078319079e-06 9.1693197761773647e-10 0.0000000000000000e+00  1.5022705899392873e-06 -1.3443106046664657e-09 0.0000000000000000e+00  1.5007688397639979e-06 -9.7270323856829048e-10 0.0000000000000000e+00  1.5033769983012505e-06 -2.4571461957780436e-09 0.0000000000000000e+00  1.5106287333567285e-06 4.6595389977321451e-10 0.0000000000000000e+00  1.1283619147403703e-20 -1.3248528058175155e-22 0.0000000000000000e+00  1.3989983005187042e-06 -8.0943689923597094e-07 0.0000000000000000e+00  8.2625188901729599e-07 -1.5235934755384568e-06 0.0000000000000000e+00  3.5227112212074932e-07 -1.1453330718224856e-06 0.0000000000000000e+00  1.0810842463044443e-06 -3.8786246120925003e-07 0.0000000000000000e+00  1.5123199450481707e-06 7.8857191291169049e-11 0.0000000000000000e+00  1.5110811148342657e-06 -7.9740657189244734e-10 0.0000000000000000e+00  1.5108942102368672e-06 1.2836387846370180e-10 0.0000000000000000e+00  1.5108603100891731e-06 -2.8903321337649270e-10 0.0000000000000000e+00  1.5088570010083692e-06 -3.2642921589619936e-09 0.0000000000000000e+00  1.5020043040959438e-06 3.3465692657821819e-09 0.0000000000000000e+00  1.1781849216322155e-20 2.4503632649134173e-23 0.0000000000000000e+00  1.5009264227108112e-06 2.0955077555310747e-09 0.0000000000000000e+00  1.5109118458454741e-06 -4.4755670871923374e-10 0.0000000000000000e+00  1.5108681561619776e-06 6.6451563949380140e-12 0.0000000000000000e+00  1.5005775339985263e-06 1.3469620935229600e-09 0.000000