<?xml version="1.0"?>
<VTKFile type="UnstructuredGrid"  version="0.1"  >
<UnstructuredGrid>
<Piece  NumberOfPoints="1079" NumberOfCells="1944">
<Points>
<DataArray  type="Float64"  NumberOfComponents="3"  format="ascii">0.08500000000000001 0.02 0  0.005 0.02 0  0.005 0.03 0  0 0.03 0  0 0 0  0.005 0 0  0.005 0.01 0  0.08500000000000001 0.01 0  0 0.015 0  0 0.0075 0  0 0.0225 0  0.04500000000000001 0.02 0  0.04500000000000001 0.01 0  0.025 0.01 0  0.025 0.02 0  0.065 0.02 0  0.065 0.01 0  0.035 0.02 0  0.035 0.01 0  0.07500000000000001 0.02 0  0.07500000000000001 0.01 0  0.015 0.02 0  0.015 0.01 0  0.05500000000000001 0.01 0  0.05500000000000001 0.02 0  0.07000000000000001 0.01 0  0.07000000000000001 0.02 0  0.05 0.01 0  0.03 0.01 0  0.03 0.02 0  0.04000000000000001 0.01 0  0.01 0.01 0  0.02 0.02 0  0.06 0.015 0  0.08500000000000001 0.015 0  0.05 0.02 0  0.07250000000000001 0.015 0  0.04000000000000001 0.02 0  0.03750000000000001 0.015 0  0.0525 0.015 0  0.02 0.01 0  0.01 0.02 0  0.0275 0.015 0  0.0125 0.015 0  0.08000000000000002 0.01 0  0.08000000000000002 0.02 0  0.0325 0.014375 0  0.04291666666666667 0.015 0  0.065 0.015 0  0.005 0.005 0  0.005 0.015 0  0.02208333333333334 0.015 0  0.07791666666666668 0.015 0  0.005 0.025 0  0.06 0.01 0  0.06 0.02 0  0.01729166666666667 0.01572916666666667 0  0.04770833333333334 0.01427083333333334 0  0.06875000000000001 0.01625 0  0.008750000000000001 0.01625 0  0.05625000000000001 0.01625 0  0 0.00375 0  0 0.01875 0  0 0.01125 0  0 0.02625 0  0.08145833333333334 0.01354166666666667 0  0.0675 0.01 0  0.0075 0.0125 0  0.0625 0.0175 0  0.0575 0.0125 0  0.0625 0.0125 0  0.08207465277777778 0.01707465277777778 0  0.06767857142857144 0.01321428571428571 0  0.0175 0.01 0  0.01875 0.01291382575757576 0  0.0475 0.02 0  0.04564168086314595 0.01679860519591141 0  0.00296875 0.0125 0  0.0025 0.03 0  0.0025 0 0  0.00296875 0.0175 0  0.01521990740740741 0.0132349537037037 0  0.0497800925925926 0.0167650462962963 0  0.0325 0.02 0  0.03474264705882353 0.01674632352941176 0  0.03750000000000001 0.02 0  0.03025735294117647 0.01674632352941176 0  0.0275 0.02 0  0.0525 0.02 0  0.0125 0.01 0  0.04020833333333334 0.01322916666666667 0  0.03750000000000001 0.01 0  0.0225 0.02 0  0.02479166666666667 0.01677083333333333 0  0.07520833333333335 0.01322916666666667 0  0.07250000000000001 0.01 0  0.07520833333333335 0.01677083333333334 0  0.07250000000000001 0.02 0  0.04020833333333334 0.01677083333333333 0  0.0225 0.01 0  0.02375 0.01262152777777778 0  0.04250000000000001 0.02 0  0.04250000000000001 0.01 0  0.07750000000000001 0.01 0  0.07750000000000001 0.02 0  0.05036151960784314 0.01294424019607843 0  0.0705560064935065 0.01284699675324675 0  0.05458333333333334 0.01291666666666666 0  0.0021875 0.024375 0  0.005 0.0275 0  0.01125 0.0175 0  0.01463848039215686 0.01705575980392157 0  0.01 0.01375 0  0.03625 0.0125 0  0.0021875 0.009375 0  0.05375000000000001 0.0175 0  0.07125000000000001 0.0175 0  0.005 0.0025 0  0.0021875 0.005625 0  0.02655220103578155 0.01234889948210923 0  0.002187499999999999 0.020625 0  0.02979166666666667 0.01302083333333333 0  0.0525 0.01 0  0.07895833333333334 0.0125 0  0.01994277885235332 0.01704213007736944 0  0.07934656179076068 0.01733823814273861 0  0.04505722114764669 0.01295786992263056 0  0.06625 0.0175 0  0.006250000000000001 0.0175 0  0.05750000000000001 0.02 0  0.05875000000000001 0.0175 0  0.005 0.0225 0  0.005 0.0075 0  0.002375 0.027375 0  0.002375 0.002625000000000001 0  0.0475 0.01 0  0.0175 0.02 0  0.0325 0.01 0  0.03375 0.0121875 0  0.04261299435028249 0.01749205508474576 0  0.08500000000000001 0.0125 0  0.08250000000000002 0.01 0  0.02121963399965531 0.01224824108143494 0  0.0675 0.02 0  0.0125 0.02 0  0.02720152243589744 0.0175 0  0.03715165441176471 0.0175 0  0.08500000000000001 0.0175 0  0.0275 0.01 0  0.0025 0.0149560546875 0  0.0075 0.01 0  0.0075 0.02 0  0.06526785714285716 0.0125 0  0.01281031447005516 0.0125 0  0.0625 0.015 0  0.06 0.0125 0  0.05750000000000001 0.01 0  0.0625 0.02 0  0.0625 0.01 0  0.08250000000000002 0.02 0  0.04260103740101855 0.01252623201412851 0  0.02240052247582197 0.01750164767101344 0  0.07293583459427785 0.01238479732953041 0  0.005234374999999999 0.012265625 0  0.03528131980640358 0.01454684009679821 0  0.0325 0.01760027210036557 0  0.02532593822924343 0.01428227733767297 0  0.08009952069819683 0.01527145502895417 0  0.01987282359856536 0.01482587683689801 0  0.04828232595121382 0.01210233572595705 0  0.01671767404878618 0.01789766427404295 0  0.05125 0.01829007549029352 0  0.05247215456215357 0.01288882122882024 0  0.07338729919678716 0.01799385040160642 0  0.03838729919678716 0.01200614959839357 0  0.07717482110586968 0.01780301674207099 0  0.04771860040890012 0.01773306039388322 0  0.03125 0.01160380747126437 0  0.06875000000000001 0.01154265873015873 0  0.07625000000000001 0.01154065860215054 0  0.01625 0.01153997817696946 0  0.068125 0.018125 0  0.05437500000000001 0.015625 0  0.066875 0.015625 0  0.07039794950204951 0.01494384850614853 0  0.05687500000000001 0.018125 0  0.006875 0.015625 0  0.008749999999999999 0.01833333333333333 0  0.010625 0.015625 0  0.05625 0.01416666666666667 0  0.05812500000000001 0.015625 0  0.0449088595298192 0.01494528408816316 0  0 0.016875 0  0 0.013125 0  0.04962452342047931 0.01478673066448802 0  0.0153754765795207 0.01521326933551198 0  0.0771774565913315 0.01322498191305479 0  0.01857756431135545 0.01840228599899994 0  0.04642243568864456 0.01159771400100006 0  0.08125000000000002 0.01155637254901961 0  0.08317650804863432 0.0118234919513657 0  0.08288217288011697 0.01511353252923977 0  0.02837253504384828 0.0117177464035174 0  0.03896057962520807 0.01831163685754031 0  0.01125 0.0114244162490927 0  0.00935910490099115 0.0119067901980177 0  0.02946078431372549 0.01495404411764706 0  0.02875 0.0185829434466942 0  0.002968749999999999 0.0225 0  0.064375 0.016875 0  0.00296875 0.0075 0  0 0.001875 0  0 0.005625 0  0 0.009375 0  0 0.020625 0  0 0.024375 0  0 0.028125 0  0.06062500000000001 0.01812500000000001 0  0.008303571428571429 0.01446428571428572 0  0.01375 0.01865917058160413 0  0.05137790313978056 0.01143372888932909 0  0.04125000000000001 0.01131513063942604 0  0.04101690263896279 0.01844430285842771 0  0.02399563533148224 0.01844349395710867 0  0.08125000000000002 0.01868815426145731 0  0.05354684380692146 0.01145463537600848 0  0.01699195823639423 0.01315138909884649 0  0.07598357371794873 0.015 0  0.04098357371794872 0.015 0  0.003744047619047619 0.00375 0  0.003344630281690141 0.02580853873239437 0  0.04625 0.0187354532243972 0  0.06388392857142858 0.01138392857142858 0  0.06375 0.01375 0  0.05875 0.01375 0  0.06375 0.02 0  0.00622802734375 0.01372802734375 0  0.003630681818181818 0.001369318181818182 0  0.003630681818181818 0.02863068181818182 0  0.06125 0.01625 0  0.06125 0.01125 0  0.05625000000000001 0.01 0  0.05875 0.01125 0  0.06125 0.01375 0  0.08337864763241221 0.0183786476324122 0  0.05213634138653413 0.01674432930673294 0  0.04375000000000001 0.01 0  0.07424178685897437 0.01529258578431373 0  0.03924178685897436 0.01529258578431372 0  0.03410139294454583 0.01843406022904556 0  0.03089860705545417 0.01843406022904556 0  0.02094160484316717 0.01850229584291991 0  0.04375000000000001 0.02 0  0.04437042160883325 0.01820701498672512 0  0.04816311705429156 0.01600061344661149 0  0.07151224904251052 0.0114127410511319 0  0.04395528506193162 0.01639387970349481 0  0.0128750358694518 0.0167500179347259 0  0.02855808448399799 0.01642839899839741 0  0.02812690373330794 0.01340955081400569 0  0.08358500641945087 0.01351822349116885 0  0.05590277777777778 0.01173611111111111 0  0.06683110430364615 0.01164926404662283 0  0.02573206694914602 0.01842532451809762 0  0.01438126661842046 0.01166701193099454 0  0.02384283211216029 0.01526549696571563 0  0.03625 0.02 0  0.004609375000000001 0.0182421875 0  0.003398437500000001 0.01943359375 0  0.001728307845744682 0.01894718251329787 0  0.004377805359085963 0.01656966216675735 0  0.04649673309852075 0.0153889662370871 0  0.03615513600614297 0.01592654988586041 0  0.03316985071935832 0.01598763605018279 0  0.03110111603888768 0.01529816275177977 0  0.01370614113484869 0.0138804542047638 0  0.04930041102671841 0.01842260568883502 0  0.07875000000000001 0.02 0  0.0745395359848485 0.01165101111925709 0  0.03860755698543604 0.01373741558556884 0  0.02605038706571737 0.01573944002207753 0  0.07559826163500957 0.01841729376139847 0  0.04437500000000001 0.01149157931286774 0  0.06874116707361365 0.01454618473032123 0  0.003761917372881356 0.0239307468220339 0  0.003984374999999999 0.01125 0  0.003768503289473684 0.01392539576480263 0  0.001796875 0.0111328125 0  0.003761917372881356 0.008930746822033899 0  0.005 0.00625 0  0.003761917372881355 0.0210692531779661 0  0.06633928571428571 0.01410714285714285 0  0.006484375 0.01125 0  0.08364120589325512 0.01657288979763549 0  0.03576267476503373 0.0184116442851204 0  0.07370875846579374 0.0137848203678562 0  0.06964285714285715 0.01758928571428571 0  0.05520833333333334 0.01833333333333333 0  0.06491071428571429 0.01839285714285714 0  0.0510098951944636 0.01559941474766356 0  0.01786087179886325 0.0115702210443714 0  0.01972197383235524 0.01160576093166696 0  0.01804697593127788 0.01433503795474974 0  0.001644074528704677 0.01642892723865279 0  0.00125 0.03 0  0.001497685185185185 0.001267746913580247 0  0.07315451164202422 0.01643443118912983 0  0.001233906745910645 0.0140625 0  0.01162635071030191 0.01362229857939618 0  0.01528023503083844 0.01845923557506155 0  0.06625 0.02 0  0.07695012019230771 0.01624387078484555 0  0.03139091092855769 0.01320776147621796 0  0.03857339107781042 0.01675295051810485 0  0.001754993120977522 0.02590789105493891 0  0.002288757784711197 0.00412546923654445 0  0.07914382119690884 0.01404430049871201 0  0.001391810103286306 0.01257390899021902 0  0.0419501201923077 0.01614675005432421 0  0.001484375 0.007018229166666667 0  0.001484375 0.02201822916666666 0  0.048
[...]
<PointData  Vectors="velocity"> 
<DataArray  type="Float64"  Name="velocity"  NumberOfComponents="3" format="ascii">1.0646439915292134e-05 7.9394160790215068e-20 0.0000000000000000e+00  2.2231581730448781e-19 -2.4862855896613006e-19 0.0000000000000000e+00  9.3678204371630646e-18 -4.9770235643321480e-04 0.0000000000000000e+00  -1.0174321534402273e-17 -4.9770235643321361e-04 0.0000000000000000e+00  -1.0505193779423496e-17 4.9770235643321404e-04 0.0000000000000000e+00  1.0174321534402285e-17 4.9770235643321339e-04 0.0000000000000000e+00  2.2035230575125323e-19 1.9440387954122002e-19 0.0000000000000000e+00  1.0933409295556557e-05 -7.7273924306117280e-20 0.0000000000000000e+00  2.4447074579319403e-20 -5.3036008901416058e-22 0.0000000000000000e+00  -2.6064704675377251e-21 1.9677077992418831e-19 0.0000000000000000e+00  1.1981789510990444e-21 -2.2262293392414710e-19 0.0000000000000000e+00  2.1239425716285662e-19 -7.7404327340662372e-22 0.0000000000000000e+00  1.6759151890897523e-19 1.0536960396607483e-21 0.0000000000000000e+00  1.9983837349878081e-19 6.4825287598959126e-22 0.0000000000000000e+00  1.6893438630843068e-19 -7.0596284094650825e-22 0.0000000000000000e+00  1.9344167362058145e-19 5.6425963730188291e-22 0.0000000000000000e+00  1.9660330894153493e-19 2.7206568272303547e-22 0.0000000000000000e+00  1.5558472318927525e-19 -3.8232552869302220e-22 0.0000000000000000e+00  2.3659499417317030e-19 -1.9149755926041505e-22 0.0000000000000000e+00  2.0569531136329086e-19 1.2141395207053607e-21 0.0000000000000000e+00  1.7653756236267746e-19 7.3688670004064027e-22 0.0000000000000000e+00  1.6703270807557808e-19 -4.3498101061348452e-22 0.0000000000000000e+00  1.6880757065933415e-19 -3.1969659025148260e-22 0.0000000000000000e+00  2.0421036068087734e-19 -2.1857884486625505e-21 0.0000000000000000e+00  1.7995436794191279e-19 8.1876989297920446e-22 0.0000000000000000e+00  1.7294546073815869e-19 2.9471096235267186e-22 0.0000000000000000e+00  2.2249989994310080e-19 -8.0767960330907958e-22 0.0000000000000000e+00  2.0359279606656858e-19 6.2592895750753950e-22 0.0000000000000000e+00  2.0071686236939545e-19 5.9685485674290382e-23 0.0000000000000000e+00  1.6010067691673473e-19 -3.8402833855098289e-22 0.0000000000000000e+00  1.7261256421098206e-19 6.2621533310518497e-22 0.0000000000000000e+00  1.8684056369279577e-19 1.0437175271051578e-21 0.0000000000000000e+00  1.7095724941386563e-19 -3.6654553632627921e-22 0.0000000000000000e+00  2.7126935157597617e-05 -3.9582478093571847e-09 0.0000000000000000e+00  2.6052001507430791e-05 5.1885174868504414e-23 0.0000000000000000e+00  1.7567213381079493e-19 1.5075200093542210e-22 0.0000000000000000e+00  2.7126429905008393e-05 9.1453843727529869e-09 0.0000000000000000e+00  2.0332547035238288e-19 -1.8361070639320085e-21 0.0000000000000000e+00  2.7103854525716691e-05 -1.3191799425836884e-08 0.0000000000000000e+00  2.7098674241641780e-05 -1.4802901295660350e-09 0.0000000000000000e+00  1.6861847020157349e-19 6.8957551528700757e-23 0.0000000000000000e+00  1.9629577308200532e-19 -3.7719397684239502e-21 0.0000000000000000e+00  2.7102170121927625e-05 -6.6378158495597578e-10 0.0000000000000000e+00  2.7045646737056544e-05 -9.8547264592439547e-08 0.0000000000000000e+00  1.7192657073431019e-19 -7.4890158133703363e-22 0.0000000000000000e+00  1.8519856549550690e-19 3.4391213185526303e-21 0.0000000000000000e+00  2.7095902481387030e-05 8.0381254212159149e-10 0.0000000000000000e+00  2.7123372496384670e-05 -2.6424556611007724e-09 0.0000000000000000e+00  2.7116043349917391e-05 -2.2826297580369455e-09 0.0000000000000000e+00  -1.3335786065508233e-20 2.3248056902259131e-19 0.0000000000000000e+00  2.0491788537929073e-05 -1.0087530482317394e-06 0.0000000000000000e+00  2.7091645490512131e-05 6.8957386225170511e-09 0.0000000000000000e+00  2.7084524947484879e-05 1.3945877833129438e-09 0.0000000000000000e+00  -2.0491882437758290e-20 -2.7966486987205297e-19 0.0000000000000000e+00  1.7125223619262058e-19 2.8903863567298136e-22 0.0000000000000000e+00  2.0199763782332591e-19 2.4274789394210203e-21 0.0000000000000000e+00  2.7104053199144817e-05 -8.3455977131975690e-09 0.0000000000000000e+00  2.7113055224278126e-05 7.1708842890672387e-09 0.0000000000000000e+00  2.7116257580142344e-05 -6.9124776028379568e-09 0.0000000000000000e+00  2.6691061982177246e-05 -8.4179598144076848e-07 0.0000000000000000e+00  2.7096988246181211e-05 -2.0395520126461717e-08 0.0000000000000000e+00  -1.1767773370173264e-19 4.2906662938924929e-20 0.0000000000000000e+00  1.0788298863073821e-20 -1.1080183872101282e-19 0.0000000000000000e+00  1.5262910157370397e-20 1.1576773364646979e-19 0.0000000000000000e+00  -1.3671645663904323e-19 2.7743716096207520e-20 0.0000000000000000e+00  2.6835384410261706e-05 -2.5944851025019887e-07 0.0000000000000000e+00  1.6199342393749128e-19 -4.8153793736697517e-22 0.0000000000000000e+00  2.6750030370430837e-05 1.5635990432878955e-06 0.0000000000000000e+00  2.7065770818967021e-05 8.3744974004113054e-10 0.0000000000000000e+00  2.7077891719175552e-05 2.2581724344161594e-09 0.0000000000000000e+00  2.7102128690910053e-05 -1.1674790698195193e-08 0.0000000000000000e+00  2.6806090824883635e-05 4.9601973325833563e-07 0.0000000000000000e+00  2.7099122859248527e-05 -5.4876278623084034e-09 0.0000000000000000e+00  1.7961458348479399e-19 -3.0221629295185879e-23 0.0000000000000000e+00  2.7077851500906448e-05 1.5136985639647536e-10 0.0000000000000000e+00  2.1299223995730369e-19 3.2312793605276712e-21 0.0000000000000000e+00  2.7123335461105388e-05 -2.0647266286124608e-08 0.0000000000000000e+00  1.2986028892546339e-05 1.0668434259962200e-05 0.0000000000000000e+00  -5.5913073908927858e-19 -4.9770235643321599e-04 0.0000000000000000e+00  -7.8011930983028737e-19 4.9770235643321653e-04 0.0000000000000000e+00  1.3406975383075711e-05 -1.3112326960334298e-05 0.0000000000000000e+00  2.7068322509245806e-05 -3.5828469796658855e-08 0.0000000000000000e+00  2.7090375025083507e-05 2.4337417357382535e-08 0.0000000000000000e+00  1.8663320971245704e-19 1.6714495188302572e-21 0.0000000000000000e+00  2.7088066846068827e-05 -8.3670420906964812e-09 0.0000000000000000e+00  1.8964464950824970e-19 1.1817371876753045e-21 0.0000000000000000e+00  2.7093297987211569e-05 -8.5973481866726952e-09 0.0000000000000000e+00  2.0298400629204142e-19 4.0078096572159826e-22 0.0000000000000000e+00  1.7974982750087995e-19 -3.2590574747436510e-23 0.0000000000000000e+00  2.1214757041838376e-19 1.0693695355126941e-21 0.0000000000000000e+00  2.7102041038262455e-05 8.3889614343447483e-09 0.0000000000000000e+00  1.8455791314714417e-19 5.8628674407713722e-22 0.0000000000000000e+00  1.9177252684503064e-19 4.9963611504543399e-22 0.0000000000000000e+00  2.7084907708455055e-05 2.1561176969487184e-09 0.0000000000000000e+00  2.7111336862619594e-05 4.3292536365223476e-09 0.0000000000000000e+00  1.9648572984774039e-19 2.8857811742284574e-23 0.0000000000000000e+00  2.7106168941237496e-05 1.8594831685800902e-08 0.0000000000000000e+00  2.1493755432906025e-19 2.1985191134583680e-21 0.0000000000000000e+00  2.7118687385349887e-05 -3.4441521653782196e-08 0.0000000000000000e+00  1.7792870204930195e-19 6.1050283114466996e-23 0.0000000000000000e+00  2.7061694881439170e-05 1.8329957261411820e-08 0.0000000000000000e+00  1.9832101662030941e-19 -4.1082123471299886e-23 0.0000000000000000e+00  1.9475368299674161e-19 1.7404685453306813e-21 0.0000000000000000e+00  1.9517805165319515e-19 3.2251347904595705e-21 0.0000000000000000e+00  2.1040853368488705e-19 -1.2659239797230626e-21 0.0000000000000000e+00  2.7107828251523179e-05 2.0518648363855080e-08 0.0000000000000000e+00  2.7114192696012326e-05 3.2050877870447913e-08 0.0000000000000000e+00  2.7106271032021087e-05 3.3656630311776146e-09 0.0000000000000000e+00  -5.4628098315982554e-06 -2.9707000937186583e-05 0.0000000000000000e+00  3.9162179149008116e-20 -3.9879934138093614e-19 0.0000000000000000e+00  2.7195583145496755e-05 -2.2301091883538479e-07 0.0000000000000000e+00  2.7142961115400440e-05 -7.3240927290660574e-08 0.0000000000000000e+00  2.6790950929898405e-05 7.9991554036839848e-08 0.0000000000000000e+00  2.7041774654603448e-05 -2.9073615154629609e-08 0.0000000000000000e+00  4.5710062144566531e-06 2.4343657578592690e-05 0.0000000000000000e+00  2.7065214197082359e-05 -3.9773702848310295e-11 0.0000000000000000e+00  2.7122779162883043e-05 7.0386845124343402e-11 0.0000000000000000e+00  7.5660913988086822e-20 2.2044223328702943e-19 0.0000000000000000e+00  -4.8483834577169182e-06 2.5911599120668553e-05 0.0000000000000000e+00  2.7061489728078135e-05 -1.8587429795949466e-08 0.0000000000000000e+00  4.5330563172670878e-06 -2.7784501989885522e-05 0.0000000000000000e+00  2.7108154406893018e-05 -4.4476087391049226e-09 0.0000000000000000e+00  1.6773851667668908e-19 -1.5299122831182252e-21 0.0000000000000000e+00  2.7055727020502530e-05 -8.2826255499024473e-08 0.0000000000000000e+00  2.7081101818263036e-05 6.0432818528660857e-10 0.0000000000000000e+00  2.7069529239373227e-05 1.2507169283398961e-07 0.0000000000000000e+00  2.7114816329316561e-05 -6.0149170423356931e-09 0.0000000000000000e+00  2.7103094648950042e-05 -3.2035323841131856e-08 0.0000000000000000e+00  2.7025857244806034e-05 -4.9484032738847948e-06 0.0000000000000000e+00  1.9949546218046542e-19 -2.6075807718460496e-21 0.0000000000000000e+00  2.7053728890399023e-05 -9.5278408223565263e-09 0.0000000000000000e+00  2.7272140057105346e-21 -2.5696416409361478e-19 0.0000000000000000e+00  2.3719870727001674e-21 2.2427833041566193e-19 0.0000000000000000e+00  -5.9792179922373237e-05 -6.7386980294748434e-05 0.0000000000000000e+00  -4.8891288198583532e-05 5.5675615204953845e-05 0.0000000000000000e+00  1.8124110203350114e-19 5.5987665049411423e-23 0.0000000000000000e+00  2.1385519404467650e-19 3.0861013165835667e-21 0.0000000000000000e+00  1.7518640549605426e-19 3.0284456422147555e-22 0.0000000000000000e+00  2.7055068671122260e-05 3.2957938612492942e-08 0.0000000000000000e+00  2.7066357100171053e-05 1.9966143483509102e-08 0.0000000000000000e+00  2.4621817827775899e-05 -6.7017837673265259e-21 0.0000000000000000e+00  1.8772246370392402e-19 -6.0576202621850480e-21 0.0000000000000000e+00  2.7066187736028900e-05 7.8236735986656001e-09 0.0000000000000000e+00  2.0251790147317453e-19 1.3282243725480606e-21 0.0000000000000000e+00  1.8112149492899441e-19 -3.6669509977526020e-22 0.0000000000000000e+00  2.7092499878345196e-05 -3.4042618442300825e-09 0.0000000000000000e+00  2.7122006957269656e-05 2.8675060903359229e-09 0.0000000000000000e+00  2.4593731690059740e-05 8.5098025634417705e-21 0.0000000000000000e+00  1.8958140342607796e-19 -2.4324377460454356e-21 0.0000000000000000e+00  1.0079828522772588e-05 -9.0422597553145521e-07 0.0000000000000000e+00  1.9462482530506389e-19 6.4792752230641343e-21 0.0000000000000000e+00  2.2515320408596144e-19 -8.3599677283458122e-21 0.0000000000000000e+00  2.7093716320847842e-05 -1.2164361774035443e-08 0.0000000000000000e+00  2.7003652470033205e-05 -2.8755961846452290e-08 0.0000000000000000e+00  2.7129384920340282e-05 1.8381944614922415e-10 0.0000000000000000e+00  2.7078228151264951e-05 1.7026553256549356e-08 0.0000000000000000e+00  2.1064296847441792e-19 2.0108874624815093e-22 0.0000000000000000e+00  2.3180618855160138e-19 6.5583763603574673e-22 0.0000000000000000e+00  1.9539955823919364e-19 -3.6338135659195329e-21 0.0000000000000000e+00  1.7777143756988700e-19 3.5988479544404932e-21 0.0000000000000000e+00  2.7073049727961430e-05 -4.4039819845203829e-09 0.0000000000000000e+00  2.7076345590290952e-05 1.0458382528488533e-08 0.0000000000000000e+00  2.7070103119778938e-05 -9.0032243151568456e-09 0.0000000000000000e+00  2.4588825457872153e-05 7.3773261476392055e-06 0.0000000000000000e+00  2.7107836218989056e-05 -7.7947723137423038e-09 0.0000000000000000e+00  2.7063627767620227e-05 8.8172636399102487e-09 0.0000000000000000e+00  2.7101200554144784e-05 8.0347955966932742e-09 0.0000000000000000e+00  2.6950283448215092e-05 3.0316710276703766e-08 0.0000000000000000e+00  2.7088864551997147e-05 2.4117194664209780e-09 0.0000000000000000e+00  2.7003183615030345e-05 7.4155890730104976e-09 0.0000000000000000e+00  2.7064804697446915e-05 5.9505320440181784e-09 0.0000000000000000e+00  2.6950214609064729e-05 2.0047724619248473e-09 0.0000000000000000e+00  2.7097323046458522e-05 -2.6002159815260157e-08 0.0000000000000000e+00  2.7016521437539469e-05 1.5954795166289297e-08 0.0000000000000000e+00  2.6991546024192884e-05 -1.0004060608634117e-08 0.0000000000000000e+00  2.7053676695806235e-05 1.1173133198070485e-08 0.0000000000000000e+00  2.7091868104101230e-05 3.3883053689743237e-08 0.0000000000000000e+00  2.6909288662995131e-05 -3.1327030176000208e-08 0.0000000000000000e+00  2.6906852451951146e-05 2.9271777875788006e-08 0.0000000000000000e+00  2.6951018656531174e-05 -4.1228770466931946e-09 0.0000000000000000e+00  2.6897374674901622e-05 -1.8820164734342988e-08 0.0000000000000000e+00  2.6964165502025561e-05 -1.6429141177043878e-08 0.0000000000000000e+00  2.7095642236876579e-05 -7.3835213361478810e-09 0.0000000000000000e+00  2.7111194968635761e-05 -5.0113045114820300e-09 0.0000000000000000e+00  2.7123091069843304e-05 6.3673949514080444e-09 0.0000000000000000e+00  2.6991504691634851e-05 -2.5588399975074870e-08 0.0000000000000000e+00  2.4835495333634317e-05 -1.4832598957659877e-06 0.0000000000000000e+00  2.7726722153045081e-05 -8.1192448729858717e-07 0.0000000000000000e+00  2.6933285253420410e-05 -2.5161155616511414e-07 0.0000000000000000e+00  2.7105420112206408e-05 -8.2706673787325098e-09 0.0000000000000000e+00  2.7119855378583742e-05 -1.8201656846712245e-08 0.0000000000000000e+00  2.7120549690297225e-05 -4.2919791085175809e-09 0.0000000000000000e+00  1.7366939197635934e-20 -6.7344288242361178e-20 0.0000000000000000e+00  2.6143151307544546e-20 5.6248631984756659e-20 0.0000000000000000e+00  2.7106061445881472e-05 1.3047395454545773e-08 0.0000000000000000e+00  2.7100018289534690e-05 -4.0660476890086740e-08 0.0000000000000000e+00  2.7124702160949325e-05 5.2454094110751797e-09 0.0000000000000000e+00  2.6914285590986417e-05 1.2396045306947116e-08 0.0000000000000000e+00  2.6967458164856072e-05 1.4439455738425528e-08 0.0000000000000000e+00  2.7115501988846860e-05 -3.6479713043068486e-07 0.0000000000000000e+00  2.6770985061891224e-05 -1.6830464197989468e-06 0.0000000000000000e+00  2.6413473647510267e-05 2.8954575349950614e-08 0.0000000000000000e+00  2.6930364663657403e-05 2.3490066869111038e-08 0.0000000000000000e+00  2.6936878638189699e-05 -2.3782368642689194e-09 0.0000000000000000e+00  2.5897200552407871e-05 1.4497112755613287e-08 0.0000000000000000e+00  2.7027521695937464e-05 3.6477179665967122e-07 0.0000000000000000e+00  2.7099473589158388e-05 -3.7507490985231726e-09 0.0000000000000000e+00  2.6833004367539698e-05 3.1881311964468979e-08 0.0000000000000000e+00  2.6455671673034212e-07 -3.1744617424974238e-05 0.0000000000000000e+00  2.7104088172946056e-05 1.6763529443247083e-08 0.0000000000000000e+00  3.5058286173604369e-07 2.7760153883240262e-05 0.0000000000000000e+00  -1.1587755945127735e-18 -1.1713171842837643e-18 0.0000000000000000e+00  -2.1784740264155863e-20 1.6247785447016247e-19 0.0000000000000000e+00  1.0241863072926854e-20 1.8258948028360821e-19 0.0000000000000000e+00  1.0283439560160092e-20 -1.9130537251767349e-19 0.0000000000000000e+00  -2.0368462627535423e-20 -1.9952779716769394e-19 0.0000000000000000e+00  -1.2477112511049938e-18 9.7255035004105696e-19 0.0000000000000000e+00  2.7013965421504733e-05 -1.8751255796941767e-08 0.0000000000000000e+00  2.6060063877791441e-05 8.7921253737338844e-09 0.0000000000000000e+00  2.6054039941248146e-05 -6.0789142155486743e-08 0.0000000000000000e+00  2.6030145772369663e-05 8.6962346063564422e-09 0.0000000000000000e+00  2.6043444660331052e-05 -3.7600818676057186e-09 0.0000000000000000e+00  2.6021203545031755e-05 2.9124527208240839e-08 0.0000000000000000e+00  2.6873989051573245e-05 3.5653887043976048e-08 0.0000000000000000e+00  2.6990426423853365e-05 3.9296729266340116e-07 0.0000000000000000e+00  2.6882800226679623e-05 -4.5340809165919622e-09 0.0000000000000000e+00  2.7071237011003497e-05 -1.4196936495999258e-08 0.0000000000000000e+00  2.7110150980498092e-05 7.6188775415543587e-09 0.0000000000000000e+00  2.7118961758227901e-05 -5.9671311841453972e-09 0.0000000000000000e+00  -4.6521207040470786e-06 3.9728296371350872e-05 0.0000000000000000e+00  -9.5333041333097010e-06 -4.1183408481568701e-05 0.0000000000000000e+00  2.6105309025170729e-05 -8.8876874497990008e-08 0.0000000000000000e+00  2.6827797891930185e-05 3.3647198489300924e-08 0.0000000000000000e+00  2.7121967489318996e-05 -5.4464153577130999e-09 0.0000000000000000e+00  2.7116153228490713e-05 -6.1846227496277358e-09 0.0000000000000000e+00  1.8806414913111247e-19 2.2187010830020540e-21 0.0000000000000000e+00  2.4001505013904430e-05 1.7921775176169666e-06 0.0000000000000000e+00  1.1033525784994858e-04 1.2797794379732774e-04 0.0000000000000000e+00  1.1125587756338474e-04 -1.3600515729509158e-04 0.0000000000000000e+00  2.7132006931847312e-05 -4.3488150362999439e-09 0.0000000000000000e+00  2.5834211585882590e-05 2.5908504968524287e-08 0.0000000000000000e+00  1.7793775371293798e-19 5.7203087091250174e-22 0.0000000000000000e+00  2.5951851381685695e-05 -4.2032297262463767e-08 0.0000000000000000e+00  2.7132274789308506e-05 4.7834508261317319e-09 0.0000000000000000e+00  2.6762147566007681e-05 2.1535816560194622e-06 0.0000000000000000e+00  2.7085677142053640e-05 1.1020245755071416e-09 0.0000000000000000e+00  1.9417436904432024e-19 -1.8519513467531949e-21 0.0000000000000000e+00  2.7117873518127336e-05 1.0887266726164928e-08 0.0000000000000000e+00  2.7107476594093915e-05 -1.2086097990176353e-08 0.0000000000000000e+00  2.6884277090891917e-05 -9.2291747725877678e-09 0.0000000000000000e+00  2.6957029534868220e-05 5.1526284048559073e-09 0.0000000000000000e+00  2.6889926018438694e-05 -2.0163127376444640e-08 0.0000000000000000e+00  1.9057614449555077e-19 1.5876330140654109e-21 0.0000000000000000e+00  2.6972794934399599e-05 -7.8964232887518650e-09 0.0000000000000000e+00  2.7120691207355320e-05 2.1598651711065506e-08 0.0000000000000000e+00  2.6089142484138580e-05 6.0895150385709243e-08 0.0000000000000000e+00  2.7116417097816120e-05 -1.1676709339451519e-09 0.0000000000000000e+00  2.7116871127510366e-05 -1.2910649038671506e-07 0.0000000000000000e+00  2.7096173297382940e-05 3.7782754689463404e-09 0.0000000000000000e+00  2.7099657527156108e-05 -6.3460242995069802e-09 0.0000000000000000e+00  2.6154846337817449e-05 -4.1036768814303630e-07 0.0000000000000000e+00  2.6955120492854459e-05 1.6368030840865215e-08 0.0000000000000000e+00  2.6944427521158105e-05 -2.4205745218550352e-08 0.0000000000000000e+00  2.6917537092896386e-05 -1.7318406485520675e-08 0.0000000000000000e+00  2.6967727093795770e-05 -4.2183204439393987e-08 0.0000000000000000e+00  2.7094385179335532e-05 8.5282855063319703e-09 0.0000000000000000e+00  2.0041171992051444e-19 -2.4000571723583918e-21 0.0000000000000000e+00  2.5037453728797282e-05 -1.4427741986358010e-05 0.0000000000000000e+00  1.4780217590394993e-05 -2.7177365178428306e-05 0.0000000000000000e+00  6.3078325194106008e-06 -2.0413982212543459e-05 0.0000000000000000e+00  1.9369459082801244e-05 -6.8735698229423883e-06 0.0000000000000000e+00  2.7124730832567905e-05 1.4232032141146748e-09 0.0000000000000000e+00  2.7102515630496121e-05 -1.4303967550149070e-08 0.0000000000000000e+00  2.7099157587369802e-05 2.3086075802198013e-09 0.0000000000000000e+00  2.7098551624890091e-05 -5.1639244603326016e-09 0.0000000000000000e+00  2.7064533047021853e-05 -5.3786577613264663e-08 0.0000000000000000e+00  2.6939546257211906e-05 5.9970999852695903e-08 0.0000000000000000e+00  2.1488806215708395e-19 4.1467686021611678e-22 0.0000000000000000e+00  2.6920492654744243e-05 3.7510924182236875e-08 0.0000000000000000e+00  2.7099479749423486e-05 -8.0225691262159461e-09 0.0000000000000000e+00  2.7098670496070931e-05 1.9680821258762936e-10 0.0000000000000000e+00  2.6914134177914144e-05 2.4116339920610141e-08 0.000000000