<?xml version="1.0"?>
<VTKFile type="UnstructuredGrid"  version="0.1"  >
<UnstructuredGrid>
<Piece  NumberOfPoints="1079" NumberOfCells="1944">
<Points>
<DataArray  type="Float64"  NumberOfComponents="3"  format="ascii">0.08500000000000001 0.02 0  0.005 0.02 0  0.005 0.03 0  0 0.03 0  0 0 0  0.005 0 0  0.005 0.01 0  0.08500000000000001 0.01 0  0 0.015 0  0 0.0075 0  0 0.0225 0  0.04500000000000001 0.02 0  0.04500000000000001 0.01 0  0.025 0.01 0  0.025 0.02 0  0.065 0.02 0  0.065 0.01 0  0.035 0.02 0  0.035 0.01 0  0.07500000000000001 0.02 0  0.07500000000000001 0.01 0  0.015 0.02 0  0.015 0.01 0  0.05500000000000001 0.01 0  0.05500000000000001 0.02 0  0.07000000000000001 0.01 0  0.07000000000000001 0.02 0  0.05 0.01 0  0.03 0.01 0  0.03 0.02 0  0.04000000000000001 0.01 0  0.01 0.01 0  0.02 0.02 0  0.06 0.015 0  0.08500000000000001 0.015 0  0.05 0.02 0  0.07250000000000001 0.015 0  0.04000000000000001 0.02 0  0.03750000000000001 0.015 0  0.0525 0.015 0  0.02 0.01 0  0.01 0.02 0  0.0275 0.015 0  0.0125 0.015 0  0.08000000000000002 0.01 0  0.08000000000000002 0.02 0  0.0325 0.014375 0  0.04291666666666667 0.015 0  0.065 0.015 0  0.005 0.005 0  0.005 0.015 0  0.02208333333333334 0.015 0  0.07791666666666668 0.015 0  0.005 0.025 0  0.06 0.01 0  0.06 0.02 0  0.01729166666666667 0.01572916666666667 0  0.04770833333333334 0.01427083333333334 0  0.06875000000000001 0.01625 0  0.008750000000000001 0.01625 0  0.05625000000000001 0.01625 0  0 0.00375 0  0 0.01875 0  0 0.01125 0  0 0.02625 0  0.08145833333333334 0.01354166666666667 0  0.0675 0.01 0  0.0075 0.0125 0  0.0625 0.0175 0  0.0575 0.0125 0  0.0625 0.0125 0  0.08207465277777778 0.01707465277777778 0  0.06767857142857144 0.01321428571428571 0  0.0175 0.01 0  0.01875 0.01291382575757576 0  0.0475 0.02 0  0.04564168086314595 0.01679860519591141 0  0.00296875 0.0125 0  0.0025 0.03 0  0.0025 0 0  0.00296875 0.0175 0  0.01521990740740741 0.0132349537037037 0  0.0497800925925926 0.0167650462962963 0  0.0325 0.02 0  0.03474264705882353 0.01674632352941176 0  0.03750000000000001 0.02 0  0.03025735294117647 0.01674632352941176 0  0.0275 0.02 0  0.0525 0.02 0  0.0125 0.01 0  0.04020833333333334 0.01322916666666667 0  0.03750000000000001 0.01 0  0.0225 0.02 0  0.02479166666666667 0.01677083333333333 0  0.07520833333333335 0.01322916666666667 0  0.07250000000000001 0.01 0  0.07520833333333335 0.01677083333333334 0  0.07250000000000001 0.02 0  0.04020833333333334 0.01677083333333333 0  0.0225 0.01 0  0.02375 0.01262152777777778 0  0.04250000000000001 0.02 0  0.04250000000000001 0.01 0  0.07750000000000001 0.01 0  0.07750000000000001 0.02 0  0.05036151960784314 0.01294424019607843 0  0.0705560064935065 0.01284699675324675 0  0.05458333333333334 0.01291666666666666 0  0.0021875 0.024375 0  0.005 0.0275 0  0.01125 0.0175 0  0.01463848039215686 0.01705575980392157 0  0.01 0.01375 0  0.03625 0.0125 0  0.0021875 0.009375 0  0.05375000000000001 0.0175 0  0.07125000000000001 0.0175 0  0.005 0.0025 0  0.0021875 0.005625 0  0.02655220103578155 0.01234889948210923 0  0.002187499999999999 0.020625 0  0.02979166666666667 0.01302083333333333 0  0.0525 0.01 0  0.07895833333333334 0.0125 0  0.01994277885235332 0.01704213007736944 0  0.07934656179076068 0.01733823814273861 0  0.04505722114764669 0.01295786992263056 0  0.06625 0.0175 0  0.006250000000000001 0.0175 0  0.05750000000000001 0.02 0  0.05875000000000001 0.0175 0  0.005 0.0225 0  0.005 0.0075 0  0.002375 0.027375 0  0.002375 0.002625000000000001 0  0.0475 0.01 0  0.0175 0.02 0  0.0325 0.01 0  0.03375 0.0121875 0  0.04261299435028249 0.01749205508474576 0  0.08500000000000001 0.0125 0  0.08250000000000002 0.01 0  0.02121963399965531 0.01224824108143494 0  0.0675 0.02 0  0.0125 0.02 0  0.02720152243589744 0.0175 0  0.03715165441176471 0.0175 0  0.08500000000000001 0.0175 0  0.0275 0.01 0  0.0025 0.0149560546875 0  0.0075 0.01 0  0.0075 0.02 0  0.06526785714285716 0.0125 0  0.01281031447005516 0.0125 0  0.0625 0.015 0  0.06 0.0125 0  0.05750000000000001 0.01 0  0.0625 0.02 0  0.0625 0.01 0  0.08250000000000002 0.02 0  0.04260103740101855 0.01252623201412851 0  0.02240052247582197 0.01750164767101344 0  0.07293583459427785 0.01238479732953041 0  0.005234374999999999 0.012265625 0  0.03528131980640358 0.01454684009679821 0  0.0325 0.01760027210036557 0  0.02532593822924343 0.01428227733767297 0  0.08009952069819683 0.01527145502895417 0  0.01987282359856536 0.01482587683689801 0  0.04828232595121382 0.01210233572595705 0  0.01671767404878618 0.01789766427404295 0  0.05125 0.01829007549029352 0  0.05247215456215357 0.01288882122882024 0  0.07338729919678716 0.01799385040160642 0  0.03838729919678716 0.01200614959839357 0  0.07717482110586968 0.01780301674207099 0  0.04771860040890012 0.01773306039388322 0  0.03125 0.01160380747126437 0  0.06875000000000001 0.01154265873015873 0  0.07625000000000001 0.01154065860215054 0  0.01625 0.01153997817696946 0  0.068125 0.018125 0  0.05437500000000001 0.015625 0  0.066875 0.015625 0  0.07039794950204951 0.01494384850614853 0  0.05687500000000001 0.018125 0  0.006875 0.015625 0  0.008749999999999999 0.01833333333333333 0  0.010625 0.015625 0  0.05625 0.01416666666666667 0  0.05812500000000001 0.015625 0  0.0449088595298192 0.01494528408816316 0  0 0.016875 0  0 0.013125 0  0.04962452342047931 0.01478673066448802 0  0.0153754765795207 0.01521326933551198 0  0.0771774565913315 0.01322498191305479 0  0.01857756431135545 0.01840228599899994 0  0.04642243568864456 0.01159771400100006 0  0.08125000000000002 0.01155637254901961 0  0.08317650804863432 0.0118234919513657 0  0.08288217288011697 0.01511353252923977 0  0.02837253504384828 0.0117177464035174 0  0.03896057962520807 0.01831163685754031 0  0.01125 0.0114244162490927 0  0.00935910490099115 0.0119067901980177 0  0.02946078431372549 0.01495404411764706 0  0.02875 0.0185829434466942 0  0.002968749999999999 0.0225 0  0.064375 0.016875 0  0.00296875 0.0075 0  0 0.001875 0  0 0.005625 0  0 0.009375 0  0 0.020625 0  0 0.024375 0  0 0.028125 0  0.06062500000000001 0.01812500000000001 0  0.008303571428571429 0.01446428571428572 0  0.01375 0.01865917058160413 0  0.05137790313978056 0.01143372888932909 0  0.04125000000000001 0.01131513063942604 0  0.04101690263896279 0.01844430285842771 0  0.02399563533148224 0.01844349395710867 0  0.08125000000000002 0.01868815426145731 0  0.05354684380692146 0.01145463537600848 0  0.01699195823639423 0.01315138909884649 0  0.07598357371794873 0.015 0  0.04098357371794872 0.015 0  0.003744047619047619 0.00375 0  0.003344630281690141 0.02580853873239437 0  0.04625 0.0187354532243972 0  0.06388392857142858 0.01138392857142858 0  0.06375 0.01375 0  0.05875 0.01375 0  0.06375 0.02 0  0.00622802734375 0.01372802734375 0  0.003630681818181818 0.001369318181818182 0  0.003630681818181818 0.02863068181818182 0  0.06125 0.01625 0  0.06125 0.01125 0  0.05625000000000001 0.01 0  0.05875 0.01125 0  0.06125 0.01375 0  0.08337864763241221 0.0183786476324122 0  0.05213634138653413 0.01674432930673294 0  0.04375000000000001 0.01 0  0.07424178685897437 0.01529258578431373 0  0.03924178685897436 0.01529258578431372 0  0.03410139294454583 0.01843406022904556 0  0.03089860705545417 0.01843406022904556 0  0.02094160484316717 0.01850229584291991 0  0.04375000000000001 0.02 0  0.04437042160883325 0.01820701498672512 0  0.04816311705429156 0.01600061344661149 0  0.07151224904251052 0.0114127410511319 0  0.04395528506193162 0.01639387970349481 0  0.0128750358694518 0.0167500179347259 0  0.02855808448399799 0.01642839899839741 0  0.02812690373330794 0.01340955081400569 0  0.08358500641945087 0.01351822349116885 0  0.05590277777777778 0.01173611111111111 0  0.06683110430364615 0.01164926404662283 0  0.02573206694914602 0.01842532451809762 0  0.01438126661842046 0.01166701193099454 0  0.02384283211216029 0.01526549696571563 0  0.03625 0.02 0  0.004609375000000001 0.0182421875 0  0.003398437500000001 0.01943359375 0  0.001728307845744682 0.01894718251329787 0  0.004377805359085963 0.01656966216675735 0  0.04649673309852075 0.0153889662370871 0  0.03615513600614297 0.01592654988586041 0  0.03316985071935832 0.01598763605018279 0  0.03110111603888768 0.01529816275177977 0  0.01370614113484869 0.0138804542047638 0  0.04930041102671841 0.01842260568883502 0  0.07875000000000001 0.02 0  0.0745395359848485 0.01165101111925709 0  0.03860755698543604 0.01373741558556884 0  0.02605038706571737 0.01573944002207753 0  0.07559826163500957 0.01841729376139847 0  0.04437500000000001 0.01149157931286774 0  0.06874116707361365 0.01454618473032123 0  0.003761917372881356 0.0239307468220339 0  0.003984374999999999 0.01125 0  0.003768503289473684 0.01392539576480263 0  0.001796875 0.0111328125 0  0.003761917372881356 0.008930746822033899 0  0.005 0.00625 0  0.003761917372881355 0.0210692531779661 0  0.06633928571428571 0.01410714285714285 0  0.006484375 0.01125 0  0.08364120589325512 0.01657288979763549 0  0.03576267476503373 0.0184116442851204 0  0.07370875846579374 0.0137848203678562 0  0.06964285714285715 0.01758928571428571 0  0.05520833333333334 0.01833333333333333 0  0.06491071428571429 0.01839285714285714 0  0.0510098951944636 0.01559941474766356 0  0.01786087179886325 0.0115702210443714 0  0.01972197383235524 0.01160576093166696 0  0.01804697593127788 0.01433503795474974 0  0.001644074528704677 0.01642892723865279 0  0.00125 0.03 0  0.001497685185185185 0.001267746913580247 0  0.07315451164202422 0.01643443118912983 0  0.001233906745910645 0.0140625 0  0.01162635071030191 0.01362229857939618 0  0.01528023503083844 0.01845923557506155 0  0.06625 0.02 0  0.07695012019230771 0.01624387078484555 0  0.03139091092855769 0.01320776147621796 0  0.03857339107781042 0.01675295051810485 0  0.001754993120977522 0.02590789105493891 0  0.002288757784711197 0.00412546923654445 0  0.07914382119690884 0.01404430049871201 0  0.001391810103286306 0.01257390899021902 0  0.0419501201923077 0.01614675005432421 0  0.001484375 0.007018229166666667 0  0.001484375 0.02201822916666666 0  0.048
[...]
<PointData  Vectors="velocity"> 
<DataArray  type="Float64"  Name="velocity"  NumberOfComponents="3" format="ascii">6.8785061895172845e-06 5.1622540760715971e-20 0.0000000000000000e+00  1.4105061516581030e-19 -1.6020342712360434e-19 0.0000000000000000e+00  6.0487582292940311e-18 -3.2745491628777523e-04 0.0000000000000000e+00  -6.5347268391689394e-18 -3.2745491628777479e-04 0.0000000000000000e+00  -6.7001629616795527e-18 3.2745491628777485e-04 0.0000000000000000e+00  6.2658931400892124e-18 3.2745491628777458e-04 0.0000000000000000e+00  1.3779364186311702e-19 1.3050277025944195e-19 0.0000000000000000e+00  7.0641070791186022e-06 -5.1626975290724905e-20 0.0000000000000000e+00  1.6365397032436955e-20 -8.2710918643875048e-22 0.0000000000000000e+00  -1.7208163662644353e-21 1.2765973785194719e-19 0.0000000000000000e+00  7.4924298530410854e-22 -1.4564253339510473e-19 0.0000000000000000e+00  1.3561992679054028e-19 -4.9906971608723510e-22 0.0000000000000000e+00  1.1873676206725054e-19 6.6860784412808097e-22 0.0000000000000000e+00  1.3119823651441696e-19 4.0049130558519253e-22 0.0000000000000000e+00  1.0979888616463205e-19 -4.3911219483128710e-22 0.0000000000000000e+00  1.2195235945645353e-19 3.9177852546287940e-22 0.0000000000000000e+00  1.2711717205686612e-19 1.6296043904874450e-22 0.0000000000000000e+00  1.0537206582314948e-19 -1.9471729865337995e-22 0.0000000000000000e+00  1.4847266811768454e-19 -1.6224588256562520e-22 0.0000000000000000e+00  1.2489908113084265e-19 7.8438478885297791e-22 0.0000000000000000e+00  1.1752357723001099e-19 4.8469018237967246e-22 0.0000000000000000e+00  1.0949921973843450e-19 -2.7730039426609641e-22 0.0000000000000000e+00  1.0548754259451238e-19 -2.9209734782590620e-22 0.0000000000000000e+00  1.2447654007795051e-19 -1.4541754948819449e-21 0.0000000000000000e+00  1.2086988208855991e-19 5.0879636404778665e-22 0.0000000000000000e+00  1.1432971733361498e-19 2.1763271066043462e-22 0.0000000000000000e+00  1.3032136996667331e-19 -5.1403436705604755e-22 0.0000000000000000e+00  1.2604959845282144e-19 4.0328183148500716e-22 0.0000000000000000e+00  1.3282733539151170e-19 5.9685485674290382e-23 0.0000000000000000e+00  1.0248621563173291e-19 -2.3937955519721534e-22 0.0000000000000000e+00  1.1785533817515494e-19 4.0755999965039533e-22 0.0000000000000000e+00  1.1617029866909582e-19 7.2417357406028154e-22 0.0000000000000000e+00  1.1357667917179834e-19 -2.3159714462130266e-22 0.0000000000000000e+00  1.7535510034088118e-05 -2.5607380353559048e-09 0.0000000000000000e+00  1.6841016956379179e-05 4.4113333726167927e-23 0.0000000000000000e+00  1.0697161243943750e-19 7.7915395288454729e-23 0.0000000000000000e+00  1.7535184927321351e-05 5.9117130951805478e-09 0.0000000000000000e+00  1.2866323066178502e-19 -1.1721003135390143e-21 0.0000000000000000e+00  1.7520590173587197e-05 -8.5280473738683989e-09 0.0000000000000000e+00  1.7517242693505360e-05 -9.5574471423460509e-10 0.0000000000000000e+00  1.1808970303679221e-19 4.4874386547571594e-23 0.0000000000000000e+00  1.2441979556460439e-19 -2.5055903800516384e-21 0.0000000000000000e+00  1.7519502444103175e-05 -4.4046866649666646e-10 0.0000000000000000e+00  1.7482963357194103e-05 -6.5501841158287289e-08 0.0000000000000000e+00  1.1461771382287346e-19 -5.1580740656032975e-22 0.0000000000000000e+00  1.1940480176492090e-19 2.2700051203455611e-21 0.0000000000000000e+00  1.7515449268650999e-05 5.1706823947865553e-10 0.0000000000000000e+00  1.7533206116087407e-05 -1.7087647573181869e-09 0.0000000000000000e+00  1.7528472438061859e-05 -1.4753386084780803e-09 0.0000000000000000e+00  -9.3051940083956699e-21 1.4729077146979244e-19 0.0000000000000000e+00  1.3246118384695550e-05 -6.6875357007241855e-07 0.0000000000000000e+00  1.7512698815981245e-05 4.3830450925102267e-09 0.0000000000000000e+00  1.7508111307769397e-05 9.0142660351421398e-10 0.0000000000000000e+00  -1.3566608153045463e-20 -1.8503556411523584e-19 0.0000000000000000e+00  1.0598251598335765e-19 1.9311314959810545e-22 0.0000000000000000e+00  1.2745158651140262e-19 1.5725271909721462e-21 0.0000000000000000e+00  1.7520820781746749e-05 -5.7453203932079008e-09 0.0000000000000000e+00  1.7526540327370792e-05 4.6352192429999123e-09 0.0000000000000000e+00  1.7528608088254618e-05 -4.4699447518472071e-09 0.0000000000000000e+00  1.7256018481686209e-05 -5.4978555208085651e-07 0.0000000000000000e+00  1.7516148584664358e-05 -1.3181279843133205e-08 0.0000000000000000e+00  -7.8118304093816350e-20 2.5204652656809209e-20 0.0000000000000000e+00  7.0681958068414688e-21 -7.0510261004280892e-20 0.0000000000000000e+00  9.7193059964386956e-21 7.6026571349920461e-20 0.0000000000000000e+00  -9.3241767498594341e-20 2.0164247265800310e-20 0.0000000000000000e+00  1.7347109023767097e-05 -1.6765856537800906e-07 0.0000000000000000e+00  1.0562409060789128e-19 -3.1799675109139868e-22 0.0000000000000000e+00  1.7285201394683402e-05 1.0041683444649110e-06 0.0000000000000000e+00  1.7495965103636718e-05 5.1946531664000269e-10 0.0000000000000000e+00  1.7503797239596563e-05 1.4684535347854725e-09 0.0000000000000000e+00  1.7519470955555051e-05 -7.5345415974094941e-09 0.0000000000000000e+00  1.7328184715649349e-05 3.2055436451050818e-07 0.0000000000000000e+00  1.7517533980045258e-05 -3.5485157842628880e-09 0.0000000000000000e+00  1.1410707391935701e-19 -2.5651641278664610e-23 0.0000000000000000e+00  1.7503642046573220e-05 -7.1228226007551932e-11 0.0000000000000000e+00  1.3322971388275787e-19 2.1617472913940751e-21 0.0000000000000000e+00  1.7533181060708320e-05 -1.3351673359225264e-08 0.0000000000000000e+00  8.3885855228304805e-06 6.8708021878639515e-06 0.0000000000000000e+00  -3.3024768930509648e-19 -3.2745491628777637e-04 0.0000000000000000e+00  -5.8148323340456292e-19 3.2745491628777664e-04 0.0000000000000000e+00  8.6716558379387955e-06 -8.5011499477664367e-06 0.0000000000000000e+00  1.7497208828240076e-05 -2.3764143252142881e-08 0.0000000000000000e+00  1.7511883654297283e-05 1.5735470984203517e-08 0.0000000000000000e+00  1.1591064800461666e-19 1.0287598572872740e-21 0.0000000000000000e+00  1.7510386355020249e-05 -5.4058133124813479e-09 0.0000000000000000e+00  1.2665576420438392e-19 8.0110505206174463e-22 0.0000000000000000e+00  1.7513766838081481e-05 -5.5610876121256471e-09 0.0000000000000000e+00  1.2538123478057510e-19 2.4961903233678517e-22 0.0000000000000000e+00  1.1731704752003272e-19 -2.2767970772737680e-23 0.0000000000000000e+00  1.3081280327642901e-19 7.0713943741281854e-22 0.0000000000000000e+00  1.7519419838749540e-05 5.4218454552047636e-09 0.0000000000000000e+00  1.1161748353907891e-19 4.0921412810918512e-22 0.0000000000000000e+00  1.2760551612830344e-19 3.2173719094537338e-22 0.0000000000000000e+00  1.7508359060666361e-05 1.3717300555650398e-09 0.0000000000000000e+00  1.7525430492005974e-05 2.7956607580359964e-09 0.0000000000000000e+00  1.2614645499970863e-19 9.3082539218670407e-23 0.0000000000000000e+00  1.7522083829537268e-05 1.2021291200051622e-08 0.0000000000000000e+00  1.3556518949512622e-19 1.4113942807103446e-21 0.0000000000000000e+00  1.7530181016192893e-05 -2.2259224520794819e-08 0.0000000000000000e+00  1.1330932546045074e-19 3.1699185463280935e-23 0.0000000000000000e+00  1.7493299103019374e-05 1.1827253276252264e-08 0.0000000000000000e+00  1.3446765899634614e-19 8.8033121724214037e-24 0.0000000000000000e+00  1.2368236480553136e-19 1.1108480097571534e-21 0.0000000000000000e+00  1.2574619452209645e-19 2.0347615049157635e-21 0.0000000000000000e+00  1.3203431719566525e-19 -8.0802251408805562e-22 0.0000000000000000e+00  1.7523165543632762e-05 1.3268046981602349e-08 0.0000000000000000e+00  1.7527272534303447e-05 2.0719720305631947e-08 0.0000000000000000e+00  1.7522155405179894e-05 2.1700148503781336e-09 0.0000000000000000e+00  -3.5902631199092152e-06 -1.9226979197163483e-05 0.0000000000000000e+00  2.2888263566184507e-20 -2.5362422643524853e-19 0.0000000000000000e+00  1.7581945666743826e-05 -1.4607542144134300e-07 0.0000000000000000e+00  1.7546423659169142e-05 -4.8021198051870631e-08 0.0000000000000000e+00  1.7316590267843204e-05 4.8015953859811630e-08 0.0000000000000000e+00  1.7480430841296588e-05 -1.8783922529493172e-08 0.0000000000000000e+00  2.9484586087953267e-06 1.5700667649089835e-05 0.0000000000000000e+00  1.7495625358445638e-05 -2.7950929142230431e-11 0.0000000000000000e+00  1.7532827088707236e-05 2.1560216719424818e-11 0.0000000000000000e+00  4.7447713836007386e-20 1.4273015385578730e-19 0.0000000000000000e+00  -3.1780825619649457e-06 1.6703298157082732e-05 0.0000000000000000e+00  1.7493208601809932e-05 -1.2004365414846671e-08 0.0000000000000000e+00  2.9293774606608575e-06 -1.7994990646726971e-05 0.0000000000000000e+00  1.7523367996581841e-05 -2.8921012477919079e-09 0.0000000000000000e+00  1.1043123700844551e-19 -1.0012067599569321e-21 0.0000000000000000e+00  1.7489420738840254e-05 -5.3486144953281477e-08 0.0000000000000000e+00  1.7505973732320062e-05 2.7821866775054702e-10 0.0000000000000000e+00  1.7498407491124855e-05 8.0817484282277380e-08 0.0000000000000000e+00  1.7527678065382908e-05 -3.8934637030852408e-09 0.0000000000000000e+00  1.7520106648846474e-05 -2.0703118427584463e-08 0.0000000000000000e+00  1.7478686960864273e-05 -3.2100743761649535e-06 0.0000000000000000e+00  1.2916659221473232e-19 -1.7392114012311747e-21 0.0000000000000000e+00  1.7488215685419922e-05 -6.1935407391622828e-09 0.0000000000000000e+00  1.5529968643629431e-21 -1.6048139304714434e-19 0.0000000000000000e+00  1.3275263623991586e-21 1.4939115578281259e-19 0.0000000000000000e+00  -3.9285160106911067e-05 -4.3766978075753676e-05 0.0000000000000000e+00  -3.2051915726173379e-05 3.6071213018291876e-05 0.0000000000000000e+00  1.1743683652170736e-19 3.9733181647969395e-23 0.0000000000000000e+00  1.3548412426987470e-19 2.0191301757701986e-21 0.0000000000000000e+00  1.1449176994608539e-19 2.2884288081155203e-22 0.0000000000000000e+00  1.7489065733711603e-05 2.1311114205036714e-08 0.0000000000000000e+00  1.7496370153942440e-05 1.2887506591017165e-08 0.0000000000000000e+00  1.5916203989983798e-05 -4.3213579656543771e-21 0.0000000000000000e+00  1.2089734754845107e-19 -4.0410703591155517e-21 0.0000000000000000e+00  1.7496173022564361e-05 5.0028708877901437e-09 0.0000000000000000e+00  1.3477703590553557e-19 8.5380600634728346e-22 0.0000000000000000e+00  1.1872293112723719e-19 -2.2864517985986813e-22 0.0000000000000000e+00  1.7513267180430405e-05 -2.2137307819264405e-09 0.0000000000000000e+00  1.7532317903853630e-05 1.8636255453428337e-09 0.0000000000000000e+00  1.5898039705050448e-05 5.5212099301693549e-21 0.0000000000000000e+00  1.2267237709837758e-19 -1.5503354205781250e-21 0.0000000000000000e+00  6.5156808323500618e-06 -6.0783367872900940e-07 0.0000000000000000e+00  1.3018822773784680e-19 4.1163260138071297e-21 0.0000000000000000e+00  1.4388437179884150e-19 -5.9655259491951108e-21 0.0000000000000000e+00  1.7514040755900084e-05 -7.8558351463630065e-09 0.0000000000000000e+00  1.7454643481332904e-05 -1.9633854960342330e-08 0.0000000000000000e+00  1.7537096326694893e-05 1.1944511016496809e-10 0.0000000000000000e+00  1.7504017615198139e-05 1.1022064258761625e-08 0.0000000000000000e+00  1.2603532430697878e-19 1.2290724778894776e-22 0.0000000000000000e+00  1.3864357479826791e-19 2.9962216414194546e-22 0.0000000000000000e+00  1.1721114685891646e-19 -2.3668923948882758e-21 0.0000000000000000e+00  1.1696221950200081e-19 2.4766670084344302e-21 0.0000000000000000e+00  1.7500711084857326e-05 -2.8344645072190628e-09 0.0000000000000000e+00  1.7502859649453994e-05 6.7073004654340660e-09 0.0000000000000000e+00  1.7498792929804615e-05 -5.8041555904259992e-09 0.0000000000000000e+00  1.5883373798963848e-05 4.7527761792218868e-06 0.0000000000000000e+00  1.7523164428962994e-05 -5.0382540870794762e-09 0.0000000000000000e+00  1.7494572114172584e-05 5.6846399455570577e-09 0.0000000000000000e+00  1.7518869031337337e-05 5.1713822444594060e-09 0.0000000000000000e+00  1.7421361906898535e-05 1.9593271719431996e-08 0.0000000000000000e+00  1.7510897205838358e-05 1.4056492697323275e-09 0.0000000000000000e+00  1.7455502967842581e-05 4.8015163795185161e-09 0.0000000000000000e+00  1.7495703130479219e-05 3.5683179213926059e-09 0.0000000000000000e+00  1.7421261420523949e-05 1.2883263260885739e-09 0.0000000000000000e+00  1.7516366646739004e-05 -1.6809864653161498e-08 0.0000000000000000e+00  1.7464122865600260e-05 1.0286612322978118e-08 0.0000000000000000e+00  1.7447980883728757e-05 -6.4604862206053146e-09 0.0000000000000000e+00  1.7488140130514505e-05 7.1987466963840999e-09 0.0000000000000000e+00  1.7512834941814632e-05 2.1876613174693240e-08 0.0000000000000000e+00  1.7394806895521448e-05 -2.0250818980630854e-08 0.0000000000000000e+00  1.7393260842544766e-05 1.8931762512646158e-08 0.0000000000000000e+00  1.7421804285783933e-05 -2.6804362904882559e-09 0.0000000000000000e+00  1.7386651716271281e-05 -1.2364347262579610e-08 0.0000000000000000e+00  1.7430279105890828e-05 -1.0635509378148169e-08 0.0000000000000000e+00  1.7515281678748249e-05 -4.7709840215721996e-09 0.0000000000000000e+00  1.7525335559098600e-05 -3.2383288364566851e-09 0.0000000000000000e+00  1.7533025684014031e-05 4.1146231737713748e-09 0.0000000000000000e+00  1.7447992476593504e-05 -1.6535283670443531e-08 0.0000000000000000e+00  1.6055899955882509e-05 -9.6952998035655291e-07 0.0000000000000000e+00  1.7928924302049245e-05 -5.2796486135274018e-07 0.0000000000000000e+00  1.7410941926562346e-05 -1.6595085577460224e-07 0.0000000000000000e+00  1.7521601766752429e-05 -5.3454040656127278e-09 0.0000000000000000e+00  1.7530932221952915e-05 -1.1766106756977847e-08 0.0000000000000000e+00  1.7531383063885363e-05 -2.7756765305493854e-09 0.0000000000000000e+00  1.1224048040393530e-20 -4.3379428912872288e-20 0.0000000000000000e+00  1.6954857275653397e-20 3.7175386256185874e-20 0.0000000000000000e+00  1.7522020003393340e-05 8.4349160496604999e-09 0.0000000000000000e+00  1.7518158871776551e-05 -2.6960715059197201e-08 0.0000000000000000e+00  1.7534075306438411e-05 3.3991254958609692e-09 0.0000000000000000e+00  1.7398275099688565e-05 7.9195356116889868e-09 0.0000000000000000e+00  1.7432410384575550e-05 9.3553309533468312e-09 0.0000000000000000e+00  1.7528126293457560e-05 -2.3573277777502559e-07 0.0000000000000000e+00  1.7305587515277315e-05 -1.0878524434472831e-06 0.0000000000000000e+00  1.7074480909057513e-05 1.8707627352587107e-08 0.0000000000000000e+00  1.7408407649538495e-05 1.5186941504464663e-08 0.0000000000000000e+00  1.7412646147568351e-05 -1.5217254231211118e-09 0.0000000000000000e+00  1.6738160806154099e-05 8.5202733966959931e-09 0.0000000000000000e+00  1.7466800859944044e-05 2.3326145857204776e-07 0.0000000000000000e+00  1.7517759611456589e-05 -2.4314060705589955e-09 0.0000000000000000e+00  1.7345499227608831e-05 2.0597223848237723e-08 0.0000000000000000e+00  1.5704393917659396e-07 -2.0563447932858204e-05 0.0000000000000000e+00  1.7520748688586735e-05 1.0832344778245456e-08 0.0000000000000000e+00  2.1475157181433829e-07 1.7910605734614390e-05 0.0000000000000000e+00  -7.1419352247343724e-19 -7.3567950977723793e-19 0.0000000000000000e+00  -1.4523160176103908e-20 1.0211596998823060e-19 0.0000000000000000e+00  7.0639081532736258e-21 1.1531496329523321e-19 0.0000000000000000e+00  6.0970261967387381e-21 -1.2353183405393289e-19 0.0000000000000000e+00  -1.4444981149119509e-20 -1.3052443398053312e-19 0.0000000000000000e+00  -8.7458436521652632e-19 6.3797868731057920e-19 0.0000000000000000e+00  1.7462482720769895e-05 -1.2123757960915090e-08 0.0000000000000000e+00  1.6844535035947624e-05 -1.1648276151343083e-09 0.0000000000000000e+00  1.6843076327196368e-05 -3.9785162212507537e-08 0.0000000000000000e+00  1.6826501033422194e-05 5.7453599876398306e-09 0.0000000000000000e+00  1.6835106890322898e-05 -2.3836968820659011e-09 0.0000000000000000e+00  1.6820793281266815e-05 1.8706201956807722e-08 0.0000000000000000e+00  1.7372060063955131e-05 2.3031567449875998e-08 0.0000000000000000e+00  1.7447229302810647e-05 2.5398723697585315e-07 0.0000000000000000e+00  1.7377707737790563e-05 -2.9720938437881902e-09 0.0000000000000000e+00  1.7499279007528696e-05 -9.5086012834091934e-09 0.0000000000000000e+00  1.7524665320726816e-05 4.9263735229809217e-09 0.0000000000000000e+00  1.7530355370354251e-05 -3.8575356820611530e-09 0.0000000000000000e+00  -3.0735689798643678e-06 2.5766501187169559e-05 0.0000000000000000e+00  -6.2914134925512167e-06 -2.6762634224913898e-05 0.0000000000000000e+00  1.6875271489451661e-05 -5.7447603246857272e-08 0.0000000000000000e+00  1.7342163971203935e-05 2.1724507011146013e-08 0.0000000000000000e+00  1.7532301521676514e-05 -3.5205673329688727e-09 0.0000000000000000e+00  1.7528538191417764e-05 -3.9998154152461407e-09 0.0000000000000000e+00  1.2081775255683293e-19 1.4142976758046034e-21 0.0000000000000000e+00  1.5510685409744442e-05 1.1461608876074823e-06 0.0000000000000000e+00  7.1634891341431205e-05 8.3357561583092890e-05 0.0000000000000000e+00  7.2435246113044963e-05 -8.8708597051863087e-05 0.0000000000000000e+00  1.7538792142353852e-05 -2.8141601341988533e-09 0.0000000000000000e+00  1.6700038653802824e-05 1.6780225287730962e-08 0.0000000000000000e+00  1.2250600693323114e-19 3.6656242150176466e-22 0.0000000000000000e+00  1.6775893289500395e-05 -2.7095127208689621e-08 0.0000000000000000e+00  1.7538961260382271e-05 3.0930147445271006e-09 0.0000000000000000e+00  1.7299657745386915e-05 1.3921785073819431e-06 0.0000000000000000e+00  1.7508841811528074e-05 7.1430693083888807e-10 0.0000000000000000e+00  1.3027227378817071e-19 -1.2237766488847258e-21 0.0000000000000000e+00  1.7529655420397881e-05 7.0381462826804570e-09 0.0000000000000000e+00  1.7522931719529185e-05 -7.8132915442788430e-09 0.0000000000000000e+00  1.7378655113076470e-05 -5.9501824172753393e-09 0.0000000000000000e+00  1.7425682542123410e-05 3.3275638632516022e-09 0.0000000000000000e+00  1.7382403872433456e-05 -1.3091234063422472e-08 0.0000000000000000e+00  1.2820749845082422e-19 1.0232032824383269e-21 0.0000000000000000e+00  1.7435890223360152e-05 -5.0907828371848044e-09 0.0000000000000000e+00  1.7531477119668124e-05 1.3960100659349413e-08 0.0000000000000000e+00  1.6864640492749122e-05 3.9448955290231459e-08 0.0000000000000000e+00  1.7528711042912499e-05 -7.5612802129306954e-10 0.0000000000000000e+00  1.7529870987531652e-05 -8.4797874309155931e-08 0.0000000000000000e+00  1.7515629392235223e-05 2.4341916481503083e-09 0.0000000000000000e+00  1.7517875294113325e-05 -4.1078758770126587e-09 0.0000000000000000e+00  1.6907295988070319e-05 -2.6511065680170765e-07 0.0000000000000000e+00  1.7424429463036136e-05 1.0599563724550322e-08 0.0000000000000000e+00  1.7417548258058330e-05 -1.5624297105427746e-08 0.0000000000000000e+00  1.7400153960143170e-05 -1.1225560586559698e-08 0.0000000000000000e+00  1.7431810499750637e-05 -2.7706523407876683e-08 0.0000000000000000e+00  1.7514472912250232e-05 5.4732615424910763e-09 0.0000000000000000e+00  1.3012117932208766e-19 -1.5546846341204769e-21 0.0000000000000000e+00  1.6197499649929732e-05 -9.3473366298904739e-06 0.0000000000000000e+00  9.5634458440290402e-06 -1.7602803189532467e-05 0.0000000000000000e+00  4.0799711625176745e-06 -1.3225915227512500e-05 0.0000000000000000e+00  1.2525687703778312e-05 -4.4625015118937537e-06 0.0000000000000000e+00  1.7534086250349868e-05 9.1785704558656891e-10 0.0000000000000000e+00  1.7519724762869545e-05 -9.2459660437038209e-09 0.0000000000000000e+00  1.7517555415242280e-05 1.4908914414765919e-09 0.0000000000000000e+00  1.7517163217587573e-05 -3.3428038980570624e-09 0.0000000000000000e+00  1.7494729125748990e-05 -3.5872913157095424e-08 0.0000000000000000e+00  1.7414418377806855e-05 3.8779413656981295e-08 0.0000000000000000e+00  1.3382250577447144e-19 3.0660955725070451e-22 0.0000000000000000e+00  1.7402034215057281e-05 2.4265824762726581e-08 0.0000000000000000e+00  1.7517762287770167e-05 -5.1871170792129500e-09 0.0000000000000000e+00  1.7517245145129499e-05 1.0924504497516729e-10 0.0000000000000000e+00  1.7397948351162651e-05 1.5599682780421679e-08 0.00000000