<?xml version="1.0"?>
<VTKFile type="UnstructuredGrid"  version="0.1"  >
<UnstructuredGrid>
<Piece  NumberOfPoints="1079" NumberOfCells="1944">
<Points>
<DataArray  type="Float64"  NumberOfComponents="3"  format="ascii">0.08500000000000001 0.02 0  0.005 0.02 0  0.005 0.03 0  0 0.03 0  0 0 0  0.005 0 0  0.005 0.01 0  0.08500000000000001 0.01 0  0 0.015 0  0 0.0075 0  0 0.0225 0  0.04500000000000001 0.02 0  0.04500000000000001 0.01 0  0.025 0.01 0  0.025 0.02 0  0.065 0.02 0  0.065 0.01 0  0.035 0.02 0  0.035 0.01 0  0.07500000000000001 0.02 0  0.07500000000000001 0.01 0  0.015 0.02 0  0.015 0.01 0  0.05500000000000001 0.01 0  0.05500000000000001 0.02 0  0.07000000000000001 0.01 0  0.07000000000000001 0.02 0  0.05 0.01 0  0.03 0.01 0  0.03 0.02 0  0.04000000000000001 0.01 0  0.01 0.01 0  0.02 0.02 0  0.06 0.015 0  0.08500000000000001 0.015 0  0.05 0.02 0  0.07250000000000001 0.015 0  0.04000000000000001 0.02 0  0.03750000000000001 0.015 0  0.0525 0.015 0  0.02 0.01 0  0.01 0.02 0  0.0275 0.015 0  0.0125 0.015 0  0.08000000000000002 0.01 0  0.08000000000000002 0.02 0  0.0325 0.014375 0  0.04291666666666667 0.015 0  0.065 0.015 0  0.005 0.005 0  0.005 0.015 0  0.02208333333333334 0.015 0  0.07791666666666668 0.015 0  0.005 0.025 0  0.06 0.01 0  0.06 0.02 0  0.01729166666666667 0.01572916666666667 0  0.04770833333333334 0.01427083333333334 0  0.06875000000000001 0.01625 0  0.008750000000000001 0.01625 0  0.05625000000000001 0.01625 0  0 0.00375 0  0 0.01875 0  0 0.01125 0  0 0.02625 0  0.08145833333333334 0.01354166666666667 0  0.0675 0.01 0  0.0075 0.0125 0  0.0625 0.0175 0  0.0575 0.0125 0  0.0625 0.0125 0  0.08207465277777778 0.01707465277777778 0  0.06767857142857144 0.01321428571428571 0  0.0175 0.01 0  0.01875 0.01291382575757576 0  0.0475 0.02 0  0.04564168086314595 0.01679860519591141 0  0.00296875 0.0125 0  0.0025 0.03 0  0.0025 0 0  0.00296875 0.0175 0  0.01521990740740741 0.0132349537037037 0  0.0497800925925926 0.0167650462962963 0  0.0325 0.02 0  0.03474264705882353 0.01674632352941176 0  0.03750000000000001 0.02 0  0.03025735294117647 0.01674632352941176 0  0.0275 0.02 0  0.0525 0.02 0  0.0125 0.01 0  0.04020833333333334 0.01322916666666667 0  0.03750000000000001 0.01 0  0.0225 0.02 0  0.02479166666666667 0.01677083333333333 0  0.07520833333333335 0.01322916666666667 0  0.07250000000000001 0.01 0  0.07520833333333335 0.01677083333333334 0  0.07250000000000001 0.02 0  0.04020833333333334 0.01677083333333333 0  0.0225 0.01 0  0.02375 0.01262152777777778 0  0.04250000000000001 0.02 0  0.04250000000000001 0.01 0  0.07750000000000001 0.01 0  0.07750000000000001 0.02 0  0.05036151960784314 0.01294424019607843 0  0.0705560064935065 0.01284699675324675 0  0.05458333333333334 0.01291666666666666 0  0.0021875 0.024375 0  0.005 0.0275 0  0.01125 0.0175 0  0.01463848039215686 0.01705575980392157 0  0.01 0.01375 0  0.03625 0.0125 0  0.0021875 0.009375 0  0.05375000000000001 0.0175 0  0.07125000000000001 0.0175 0  0.005 0.0025 0  0.0021875 0.005625 0  0.02655220103578155 0.01234889948210923 0  0.002187499999999999 0.020625 0  0.02979166666666667 0.01302083333333333 0  0.0525 0.01 0  0.07895833333333334 0.0125 0  0.01994277885235332 0.01704213007736944 0  0.07934656179076068 0.01733823814273861 0  0.04505722114764669 0.01295786992263056 0  0.06625 0.0175 0  0.006250000000000001 0.0175 0  0.05750000000000001 0.02 0  0.05875000000000001 0.0175 0  0.005 0.0225 0  0.005 0.0075 0  0.002375 0.027375 0  0.002375 0.002625000000000001 0  0.0475 0.01 0  0.0175 0.02 0  0.0325 0.01 0  0.03375 0.0121875 0  0.04261299435028249 0.01749205508474576 0  0.08500000000000001 0.0125 0  0.08250000000000002 0.01 0  0.02121963399965531 0.01224824108143494 0  0.0675 0.02 0  0.0125 0.02 0  0.02720152243589744 0.0175 0  0.03715165441176471 0.0175 0  0.08500000000000001 0.0175 0  0.0275 0.01 0  0.0025 0.0149560546875 0  0.0075 0.01 0  0.0075 0.02 0  0.06526785714285716 0.0125 0  0.01281031447005516 0.0125 0  0.0625 0.015 0  0.06 0.0125 0  0.05750000000000001 0.01 0  0.0625 0.02 0  0.0625 0.01 0  0.08250000000000002 0.02 0  0.04260103740101855 0.01252623201412851 0  0.02240052247582197 0.01750164767101344 0  0.07293583459427785 0.01238479732953041 0  0.005234374999999999 0.012265625 0  0.03528131980640358 0.01454684009679821 0  0.0325 0.01760027210036557 0  0.02532593822924343 0.01428227733767297 0  0.08009952069819683 0.01527145502895417 0  0.01987282359856536 0.01482587683689801 0  0.04828232595121382 0.01210233572595705 0  0.01671767404878618 0.01789766427404295 0  0.05125 0.01829007549029352 0  0.05247215456215357 0.01288882122882024 0  0.07338729919678716 0.01799385040160642 0  0.03838729919678716 0.01200614959839357 0  0.07717482110586968 0.01780301674207099 0  0.04771860040890012 0.01773306039388322 0  0.03125 0.01160380747126437 0  0.06875000000000001 0.01154265873015873 0  0.07625000000000001 0.01154065860215054 0  0.01625 0.01153997817696946 0  0.068125 0.018125 0  0.05437500000000001 0.015625 0  0.066875 0.015625 0  0.07039794950204951 0.01494384850614853 0  0.05687500000000001 0.018125 0  0.006875 0.015625 0  0.008749999999999999 0.01833333333333333 0  0.010625 0.015625 0  0.05625 0.01416666666666667 0  0.05812500000000001 0.015625 0  0.0449088595298192 0.01494528408816316 0  0 0.016875 0  0 0.013125 0  0.04962452342047931 0.01478673066448802 0  0.0153754765795207 0.01521326933551198 0  0.0771774565913315 0.01322498191305479 0  0.01857756431135545 0.01840228599899994 0  0.04642243568864456 0.01159771400100006 0  0.08125000000000002 0.01155637254901961 0  0.08317650804863432 0.0118234919513657 0  0.08288217288011697 0.01511353252923977 0  0.02837253504384828 0.0117177464035174 0  0.03896057962520807 0.01831163685754031 0  0.01125 0.0114244162490927 0  0.00935910490099115 0.0119067901980177 0  0.02946078431372549 0.01495404411764706 0  0.02875 0.0185829434466942 0  0.002968749999999999 0.0225 0  0.064375 0.016875 0  0.00296875 0.0075 0  0 0.001875 0  0 0.005625 0  0 0.009375 0  0 0.020625 0  0 0.024375 0  0 0.028125 0  0.06062500000000001 0.01812500000000001 0  0.008303571428571429 0.01446428571428572 0  0.01375 0.01865917058160413 0  0.05137790313978056 0.01143372888932909 0  0.04125000000000001 0.01131513063942604 0  0.04101690263896279 0.01844430285842771 0  0.02399563533148224 0.01844349395710867 0  0.08125000000000002 0.01868815426145731 0  0.05354684380692146 0.01145463537600848 0  0.01699195823639423 0.01315138909884649 0  0.07598357371794873 0.015 0  0.04098357371794872 0.015 0  0.003744047619047619 0.00375 0  0.003344630281690141 0.02580853873239437 0  0.04625 0.0187354532243972 0  0.06388392857142858 0.01138392857142858 0  0.06375 0.01375 0  0.05875 0.01375 0  0.06375 0.02 0  0.00622802734375 0.01372802734375 0  0.003630681818181818 0.001369318181818182 0  0.003630681818181818 0.02863068181818182 0  0.06125 0.01625 0  0.06125 0.01125 0  0.05625000000000001 0.01 0  0.05875 0.01125 0  0.06125 0.01375 0  0.08337864763241221 0.0183786476324122 0  0.05213634138653413 0.01674432930673294 0  0.04375000000000001 0.01 0  0.07424178685897437 0.01529258578431373 0  0.03924178685897436 0.01529258578431372 0  0.03410139294454583 0.01843406022904556 0  0.03089860705545417 0.01843406022904556 0  0.02094160484316717 0.01850229584291991 0  0.04375000000000001 0.02 0  0.04437042160883325 0.01820701498672512 0  0.04816311705429156 0.01600061344661149 0  0.07151224904251052 0.0114127410511319 0  0.04395528506193162 0.01639387970349481 0  0.0128750358694518 0.0167500179347259 0  0.02855808448399799 0.01642839899839741 0  0.02812690373330794 0.01340955081400569 0  0.08358500641945087 0.01351822349116885 0  0.05590277777777778 0.01173611111111111 0  0.06683110430364615 0.01164926404662283 0  0.02573206694914602 0.01842532451809762 0  0.01438126661842046 0.01166701193099454 0  0.02384283211216029 0.01526549696571563 0  0.03625 0.02 0  0.004609375000000001 0.0182421875 0  0.003398437500000001 0.01943359375 0  0.001728307845744682 0.01894718251329787 0  0.004377805359085963 0.01656966216675735 0  0.04649673309852075 0.0153889662370871 0  0.03615513600614297 0.01592654988586041 0  0.03316985071935832 0.01598763605018279 0  0.03110111603888768 0.01529816275177977 0  0.01370614113484869 0.0138804542047638 0  0.04930041102671841 0.01842260568883502 0  0.07875000000000001 0.02 0  0.0745395359848485 0.01165101111925709 0  0.03860755698543604 0.01373741558556884 0  0.02605038706571737 0.01573944002207753 0  0.07559826163500957 0.01841729376139847 0  0.04437500000000001 0.01149157931286774 0  0.06874116707361365 0.01454618473032123 0  0.003761917372881356 0.0239307468220339 0  0.003984374999999999 0.01125 0  0.003768503289473684 0.01392539576480263 0  0.001796875 0.0111328125 0  0.003761917372881356 0.008930746822033899 0  0.005 0.00625 0  0.003761917372881355 0.0210692531779661 0  0.06633928571428571 0.01410714285714285 0  0.006484375 0.01125 0  0.08364120589325512 0.01657288979763549 0  0.03576267476503373 0.0184116442851204 0  0.07370875846579374 0.0137848203678562 0  0.06964285714285715 0.01758928571428571 0  0.05520833333333334 0.01833333333333333 0  0.06491071428571429 0.01839285714285714 0  0.0510098951944636 0.01559941474766356 0  0.01786087179886325 0.0115702210443714 0  0.01972197383235524 0.01160576093166696 0  0.01804697593127788 0.01433503795474974 0  0.001644074528704677 0.01642892723865279 0  0.00125 0.03 0  0.001497685185185185 0.001267746913580247 0  0.07315451164202422 0.01643443118912983 0  0.001233906745910645 0.0140625 0  0.01162635071030191 0.01362229857939618 0  0.01528023503083844 0.01845923557506155 0  0.06625 0.02 0  0.07695012019230771 0.01624387078484555 0  0.03139091092855769 0.01320776147621796 0  0.03857339107781042 0.01675295051810485 0  0.001754993120977522 0.02590789105493891 0  0.002288757784711197 0.00412546923654445 0  0.07914382119690884 0.01404430049871201 0  0.001391810103286306 0.01257390899021902 0  0.0419501201923077 0.01614675005432421 0  0.001484375 0.007018229166666667 0  0.001484375 0.02201822916666666 0  0.048
[...]
<PointData  Vectors="velocity"> 
<DataArray  type="Float64"  Name="velocity"  NumberOfComponents="3" format="ascii">1.2962109696342586e-05 9.5076957983343980e-20 0.0000000000000000e+00  2.7100333929065582e-19 -3.0716098429508941e-19 0.0000000000000000e+00  1.0980822631641472e-17 -5.9948425031894445e-04 0.0000000000000000e+00  -1.2076836943274243e-17 -5.9948425031894337e-04 0.0000000000000000e+00  -1.2242273065784862e-17 5.9948425031894391e-04 0.0000000000000000e+00  1.1415092453231833e-17 5.9948425031894326e-04 0.0000000000000000e+00  2.5063662264424599e-19 2.4922552037856968e-19 0.0000000000000000e+00  1.3311272289067111e-05 -9.7924714422407242e-20 0.0000000000000000e+00  2.9498123046120935e-20 -9.3444396635828291e-22 0.0000000000000000e+00  -2.9257972159166925e-21 2.4043939508712401e-19 0.0000000000000000e+00  1.6770624608375073e-21 -2.8144272703326074e-19 0.0000000000000000e+00  2.5793042613713477e-19 -8.5105044541330812e-22 0.0000000000000000e+00  2.0944251499219858e-19 1.3683787568291789e-21 0.0000000000000000e+00  2.5023239812021252e-19 7.7383065824935504e-22 0.0000000000000000e+00  2.1457555696501624e-19 -8.7666368653293618e-22 0.0000000000000000e+00  2.3044790683495356e-19 6.9978051088967137e-22 0.0000000000000000e+00  2.4516981648429926e-19 3.2204144962646917e-22 0.0000000000000000e+00  1.9853858625167601e-19 -4.0183919662256749e-22 0.0000000000000000e+00  2.7312671794933682e-19 -3.1491208130677928e-22 0.0000000000000000e+00  2.4157738175297387e-19 1.4826741811954760e-21 0.0000000000000000e+00  2.1335825394117876e-19 8.6495524416535058e-22 0.0000000000000000e+00  2.0415108764792876e-19 -5.2197721273618144e-22 0.0000000000000000e+00  2.1102130822360205e-19 -3.8546225561031325e-22 0.0000000000000000e+00  2.3403884033089313e-19 -2.6119105868418510e-21 0.0000000000000000e+00  2.2495849430458719e-19 1.0041508395984820e-21 0.0000000000000000e+00  2.1821306455552909e-19 3.6725519923948337e-22 0.0000000000000000e+00  2.5047131593594774e-19 -8.9335199781842079e-22 0.0000000000000000e+00  2.2703559836033475e-19 7.6346869082833091e-22 0.0000000000000000e+00  2.5106970846552404e-19 6.5111438917407690e-23 0.0000000000000000e+00  1.9676772537158779e-19 -4.8499886183322058e-22 0.0000000000000000e+00  2.1855656114573456e-19 7.7549463250934959e-22 0.0000000000000000e+00  2.3137251151594915e-19 1.4143128809323514e-21 0.0000000000000000e+00  2.0793876372125305e-19 -4.3697574456849560e-22 0.0000000000000000e+00  3.3016584240938584e-05 -4.8152926202439164e-09 0.0000000000000000e+00  3.1707839110302970e-05 8.1178250537940419e-23 0.0000000000000000e+00  2.0264729255673249e-19 1.4652317140885480e-22 0.0000000000000000e+00  3.3015967555065644e-05 1.1131079594752465e-08 0.0000000000000000e+00  2.3901308177681960e-19 -2.2084644405336044e-21 0.0000000000000000e+00  3.2988492444491133e-05 -1.6055316909313608e-08 0.0000000000000000e+00  3.2982186081624194e-05 -1.8030134292087312e-09 0.0000000000000000e+00  2.2482462693543129e-19 9.3075368545773980e-23 0.0000000000000000e+00  2.3396869922905683e-19 -4.5929369254115039e-21 0.0000000000000000e+00  3.2986441050772658e-05 -7.9526980968539971e-10 0.0000000000000000e+00  3.2917647326196603e-05 -1.1794382166651542e-07 0.0000000000000000e+00  2.0678453524745212e-19 -7.8928918587755163e-22 0.0000000000000000e+00  2.2385526159527280e-19 4.1605420383703418e-21 0.0000000000000000e+00  3.2978814466269867e-05 9.8116594517122707e-10 0.0000000000000000e+00  3.3012249146350328e-05 -3.2154606263415647e-09 0.0000000000000000e+00  3.3003324040830974e-05 -2.7784627154706659e-09 0.0000000000000000e+00  -1.6520451394584827e-20 2.8980454494596999e-19 0.0000000000000000e+00  2.4941163992991893e-05 -1.2092322942156606e-06 0.0000000000000000e+00  3.2973631651204632e-05 8.4757223607525366e-09 0.0000000000000000e+00  3.2964947365563593e-05 1.6974511666127208e-09 0.0000000000000000e+00  -2.5443144196525927e-20 -3.4712511829730863e-19 0.0000000000000000e+00  2.0679515313825882e-19 3.4583662084889473e-22 0.0000000000000000e+00  2.3946606328112301e-19 2.9562817427841328e-21 0.0000000000000000e+00  3.2988620527973884e-05 -9.7677826376660600e-09 0.0000000000000000e+00  3.2999687743748229e-05 8.7280345154815387e-09 0.0000000000000000e+00  3.3003588059768133e-05 -8.4114808746817016e-09 0.0000000000000000e+00  3.2483560134423166e-05 -1.0183029717524470e-06 0.0000000000000000e+00  3.2980138932093422e-05 -2.4827015482351511e-08 0.0000000000000000e+00  -1.4211163565227418e-19 5.1002924336390567e-20 0.0000000000000000e+00  1.3249290115658301e-20 -1.3918908665780124e-19 0.0000000000000000e+00  1.9006642837480115e-20 1.4226184184416935e-19 0.0000000000000000e+00  -1.6360211966011031e-19 3.4894158389044508e-20 0.0000000000000000e+00  3.2661659126755486e-05 -3.1584236093570304e-07 0.0000000000000000e+00  1.9920812943664468e-19 -6.1194332773050672e-22 0.0000000000000000e+00  3.2565268580133364e-05 1.9103818612769769e-06 0.0000000000000000e+00  3.2942148149424332e-05 1.0445930192294393e-09 0.0000000000000000e+00  3.2956904200830536e-05 2.7383937453145877e-09 0.0000000000000000e+00  3.2986396034660631e-05 -1.4223813343119908e-08 0.0000000000000000e+00  3.2625991882000552e-05 6.0381083218380240e-07 0.0000000000000000e+00  3.2982730606419165e-05 -6.6777098152784127e-09 0.0000000000000000e+00  2.2014818788384565e-19 -3.8887000207584662e-23 0.0000000000000000e+00  3.2956998380323849e-05 3.7227045399977926e-10 0.0000000000000000e+00  2.6908896159214912e-19 4.0512967452655546e-21 0.0000000000000000e+00  3.3012205359948009e-05 -2.5124564519899805e-08 0.0000000000000000e+00  1.5812036422028639e-05 1.3013101985170975e-05 0.0000000000000000e+00  -6.5299408446259685e-19 -5.9948425031894673e-04 0.0000000000000000e+00  -9.9112621640632750e-19 5.9948425031894727e-04 0.0000000000000000e+00  1.6312189847748727e-05 -1.5931394234823186e-05 0.0000000000000000e+00  3.2945704504295427e-05 -4.2936125935371355e-08 0.0000000000000000e+00  3.2972078302559195e-05 2.9617759790121664e-08 0.0000000000000000e+00  2.2074698056212480e-19 1.9702187116587264e-21 0.0000000000000000e+00  3.2969275062717099e-05 -1.0186977708224425e-08 0.0000000000000000e+00  2.3693184314903222e-19 1.4719042874022437e-21 0.0000000000000000e+00  3.2975643274403859e-05 -1.0460030799947106e-08 0.0000000000000000e+00  2.5281892200714835e-19 4.8830870130114981e-22 0.0000000000000000e+00  2.1768108177474377e-19 -2.9939668285606090e-23 0.0000000000000000e+00  2.4849545692616493e-19 1.3588118037588625e-21 0.0000000000000000e+00  3.2986282968076826e-05 1.0211450432114570e-08 0.0000000000000000e+00  2.1734782864030482e-19 8.0463424199168805e-22 0.0000000000000000e+00  2.4147673388501833e-19 6.0286109341627714e-22 0.0000000000000000e+00  3.2965413573020801e-05 2.6486353747881510e-09 0.0000000000000000e+00  3.2997595192647991e-05 5.2725171516832226e-09 0.0000000000000000e+00  2.4061359398799010e-19 1.5114943411197027e-22 0.0000000000000000e+00  3.2991312176248769e-05 2.2630706744261952e-08 0.0000000000000000e+00  2.6199904498280873e-19 2.6393261684864277e-21 0.0000000000000000e+00  3.3006542819508921e-05 -4.1924610087526166e-08 0.0000000000000000e+00  2.0738311556422017e-19 5.6354107490277221e-23 0.0000000000000000e+00  3.2937221953513579e-05 2.2333374620695777e-08 0.0000000000000000e+00  2.5391099855175979e-19 -5.2819873034528428e-23 0.0000000000000000e+00  2.3201758692010644e-19 2.2589401127031857e-21 0.0000000000000000e+00  2.3391753455407527e-19 4.0600641869001820e-21 0.0000000000000000e+00  2.4951100454668021e-19 -1.5449628512002797e-21 0.0000000000000000e+00  3.2993321237409707e-05 2.4968577137189722e-08 0.0000000000000000e+00  3.3001075742251919e-05 3.9008138655442292e-08 0.0000000000000000e+00  3.2991429972434552e-05 4.1029002248343575e-09 0.0000000000000000e+00  -6.5837949848414366e-06 -3.6130348396060822e-05 0.0000000000000000e+00  5.2836197554213623e-20 -4.6680269728115361e-19 0.0000000000000000e+00  3.3097848020382592e-05 -2.6929688231270088e-07 0.0000000000000000e+00  3.3035473715132792e-05 -8.8390428974259470e-08 0.0000000000000000e+00  3.2609579943923199e-05 1.0146193126253340e-07 0.0000000000000000e+00  3.2912968054523295e-05 -3.5397448483258812e-08 0.0000000000000000e+00  5.5704886621070557e-06 2.9668649467206965e-05 0.0000000000000000e+00  3.2941447439013305e-05 -4.5806464520238608e-11 0.0000000000000000e+00  3.3011521798483856e-05 1.1334440288391099e-10 0.0000000000000000e+00  8.9941669620620854e-20 2.6254917672387775e-19 0.0000000000000000e+00  -5.8522679242232414e-06 3.1589110096688451e-05 0.0000000000000000e+00  3.2936924425381273e-05 -2.2636240113450867e-08 0.0000000000000000e+00  5.5182129868757502e-06 -3.3778633243328570e-05 0.0000000000000000e+00  3.2993727727638960e-05 -5.3937200746341313e-09 0.0000000000000000e+00  2.0482124626268163e-19 -1.8395733329476582e-21 0.0000000000000000e+00  3.2929983471343130e-05 -1.0087236042546347e-07 0.0000000000000000e+00  3.2960698095780492e-05 8.6039882755799875e-10 0.0000000000000000e+00  3.2946707653488711e-05 1.5226342464543862e-07 0.0000000000000000e+00  3.3001831990464348e-05 -7.3147476529485170e-09 0.0000000000000000e+00  3.2987558722254648e-05 -3.8996753995204221e-08 0.0000000000000000e+00  3.2884109435025006e-05 -6.0102011483907473e-06 0.0000000000000000e+00  2.5278626964876416e-19 -3.3027061859795245e-21 0.0000000000000000e+00  3.2927451542605713e-05 -1.1556564430186592e-08 0.0000000000000000e+00  3.2082642539400315e-21 -3.0544796863957985e-19 0.0000000000000000e+00  2.4089860419620440e-21 2.7844684902644114e-19 0.0000000000000000e+00  -7.2076402042765093e-05 -8.1783563362837594e-05 0.0000000000000000e+00  -5.9011188704237858e-05 6.7670387014983043e-05 0.0000000000000000e+00  2.1822908204033811e-19 7.0436094739582113e-23 0.0000000000000000e+00  2.5659105930195970e-19 3.6087239614922309e-21 0.0000000000000000e+00  2.1148424192274563e-19 3.7109448420692681e-22 0.0000000000000000e+00  3.2929100616287318e-05 4.0106239808454794e-08 0.0000000000000000e+00  3.2942831504290414e-05 2.4323195439599166e-08 0.0000000000000000e+00  2.9967497287834188e-05 -8.2879677759419403e-21 0.0000000000000000e+00  2.1832938713391162e-19 -6.7112056062629084e-21 0.0000000000000000e+00  3.2942723394212754e-05 9.5826336478322809e-09 0.0000000000000000e+00  2.4975493200507410e-19 1.5633925990789258e-21 0.0000000000000000e+00  2.2198427122395044e-19 -4.7023253971180421e-22 0.0000000000000000e+00  3.2974653395099188e-05 -4.1285779097654556e-09 0.0000000000000000e+00  3.3010593499231569e-05 3.4784943834818589e-09 0.0000000000000000e+00  2.9933323333135944e-05 1.0177369507900660e-20 0.0000000000000000e+00  2.2103363173800826e-19 -2.9052282237731931e-21 0.0000000000000000e+00  1.2268485769776951e-05 -1.0746210658483888e-06 0.0000000000000000e+00  2.3933593382109207e-19 8.0408764396165900e-21 0.0000000000000000e+00  2.9085773317339866e-19 -1.1065781540045887e-20 0.0000000000000000e+00  3.2976148248464283e-05 -1.4814090241082690e-08 0.0000000000000000e+00  3.2867838383291653e-05 -3.3838302419053092e-08 0.0000000000000000e+00  3.3019562753590008e-05 2.2301390671514829e-10 0.0000000000000000e+00  3.2957310361186075e-05 2.0705135795308529e-08 0.0000000000000000e+00  2.3848276302351785e-19 2.8570681381481634e-22 0.0000000000000000e+00  2.5968161628881926e-19 8.3493038208592331e-22 0.0000000000000000e+00  2.2713233214490032e-19 -4.2960297443430982e-21 0.0000000000000000e+00  2.2094422350281088e-19 4.7942207371651107e-21 0.0000000000000000e+00  3.2950960240537734e-05 -5.3745190859587686e-09 0.0000000000000000e+00  3.2954953019323400e-05 1.2788652052494959e-08 0.0000000000000000e+00  3.2947389418027950e-05 -1.0976206508144607e-08 0.0000000000000000e+00  2.9940151204305507e-05 8.9969606058151546e-06 0.0000000000000000e+00  3.2993338163575098e-05 -9.4877202561764382e-09 0.0000000000000000e+00  3.2939548700389416e-05 1.0748927856661117e-08 0.0000000000000000e+00  3.2985268389088213e-05 9.8042313404213757e-09 0.0000000000000000e+00  3.2801528257546640e-05 3.6903742948830592e-08 0.0000000000000000e+00  3.2970251287547964e-05 3.1058152891756883e-09 0.0000000000000000e+00  3.2865977238811931e-05 9.0164964804246258e-09 0.0000000000000000e+00  3.2940569288337845e-05 7.5526578359814401e-09 0.0000000000000000e+00  3.2801509165754379e-05 2.4488281678395958e-09 0.0000000000000000e+00  3.2980544529395274e-05 -3.1645937819093646e-08 0.0000000000000000e+00  3.2882213059377671e-05 1.9449967945886859e-08 0.0000000000000000e+00  3.2851812086690152e-05 -1.2183462402074530e-08 0.0000000000000000e+00  3.2927436317688344e-05 1.3626506207607899e-08 0.0000000000000000e+00  3.2973911557563811e-05 4.1269893170498693e-08 0.0000000000000000e+00  3.2751696313745411e-05 -3.8128337965505064e-08 0.0000000000000000e+00  3.2748698031157783e-05 3.5615802690032713e-08 0.0000000000000000e+00  3.2802461039457813e-05 -5.0003502757806150e-09 0.0000000000000000e+00  3.2737699646623204e-05 -2.2686118611978935e-08 0.0000000000000000e+00  3.2818489406069188e-05 -1.9978417326482013e-08 0.0000000000000000e+00  3.2978497001855735e-05 -8.9887907901946306e-09 0.0000000000000000e+00  3.2997426204045956e-05 -6.1006049231151959e-09 0.0000000000000000e+00  3.3011904896120979e-05 7.7514859580169911e-09 0.0000000000000000e+00  3.2851717397739874e-05 -3.1150614476565619e-08 0.0000000000000000e+00  3.0225836156724287e-05 -1.7933834873819917e-06 0.0000000000000000e+00  3.3740258407705666e-05 -9.8473420607765012e-07 0.0000000000000000e+00  3.2780211628567888e-05 -3.0256738848885351e-07 0.0000000000000000e+00  3.2990398452571699e-05 -1.0067453928218101e-08 0.0000000000000000e+00  3.3007968809662977e-05 -2.2153368311071521e-08 0.0000000000000000e+00  3.3008811527426611e-05 -5.2224019240795654e-09 0.0000000000000000e+00  2.1689714456436144e-20 -7.9175041582235431e-20 0.0000000000000000e+00  3.0026130150956110e-20 7.2990319639563249e-20 0.0000000000000000e+00  3.2991174793528064e-05 1.5879293749063194e-08 0.0000000000000000e+00  3.2983769357888641e-05 -4.8735983876777381e-08 0.0000000000000000e+00  3.3013856332822351e-05 6.3745724315264300e-09 0.0000000000000000e+00  3.2757512349980968e-05 1.5191172276288594e-08 0.0000000000000000e+00  3.2822493764449187e-05 1.7549800162376174e-08 0.0000000000000000e+00  3.3002660777045216e-05 -4.4409332178350217e-07 0.0000000000000000e+00  3.2583153184191165e-05 -2.0485868202689688e-06 0.0000000000000000e+00  3.2148023825912636e-05 3.5251795730086021e-08 0.0000000000000000e+00  3.2777374754898739e-05 2.8587142958237076e-08 0.0000000000000000e+00  3.2785271392962247e-05 -2.9126638571866433e-09 0.0000000000000000e+00  3.1522545876529892e-05 1.8585213659097849e-08 0.0000000000000000e+00  3.2900529785522276e-05 4.4678344736771086e-07 0.0000000000000000e+00  3.2983158740520009e-05 -4.5574715260324902e-09 0.0000000000000000e+00  3.2658844992094218e-05 3.8816490860843593e-08 0.0000000000000000e+00  3.3740893486457765e-07 -3.8589112262477254e-05 0.0000000000000000e+00  3.2988768169780576e-05 2.0407771782292177e-08 0.0000000000000000e+00  4.3987663771591825e-07 3.3825350376304781e-05 0.0000000000000000e+00  -1.3460351739632588e-18 -1.4059148214714315e-18 0.0000000000000000e+00  -2.6323227819188335e-20 1.9515496486639627e-19 0.0000000000000000e+00  1.3272347465189093e-20 2.2320468069946228e-19 0.0000000000000000e+00  1.2290552769312274e-20 -2.3592260510952681e-19 0.0000000000000000e+00  -2.5356657556727770e-20 -2.4109608824429683e-19 0.0000000000000000e+00  -1.4881341635838551e-18 1.1626869711854293e-18 0.0000000000000000e+00  3.2879087933780051e-05 -2.2819508722649971e-08 0.0000000000000000e+00  3.1719556380155238e-05 1.8312389822649738e-08 0.0000000000000000e+00  3.1709510755757381e-05 -7.3439825900607068e-08 0.0000000000000000e+00  3.1681686369515765e-05 1.0441044178326842e-08 0.0000000000000000e+00  3.1697862078418774e-05 -4.6307805874143640e-09 0.0000000000000000e+00  3.1670718501783677e-05 3.5587333106955674e-08 0.0000000000000000e+00  3.2708651377785151e-05 4.3412643653382371e-08 0.0000000000000000e+00  3.2850481600967506e-05 4.7832807214077869e-07 0.0000000000000000e+00  3.2719429604521624e-05 -5.4708875122835969e-09 0.0000000000000000e+00  3.2949044776134283e-05 -1.6910870943926029e-08 0.0000000000000000e+00  3.2996150213140280e-05 9.2714893549994734e-09 0.0000000000000000e+00  3.3006880236959313e-05 -7.2624136950752291e-09 0.0000000000000000e+00  -5.5894326678712185e-06 4.8259918243318560e-05 0.0000000000000000e+00  -1.1461390632564933e-05 -4.9969268673962759e-05 0.0000000000000000e+00  3.1772957032000361e-05 -1.0817859089526237e-07 0.0000000000000000e+00  3.2652472757632756e-05 4.0982367161500070e-08 0.0000000000000000e+00  3.3010534886801820e-05 -6.6290585563063934e-09 0.0000000000000000e+00  3.3003463873490030e-05 -7.5251676426075572e-09 0.0000000000000000e+00  2.1242723434497067e-19 2.6370443576523315e-21 0.0000000000000000e+00  2.9217561148616474e-05 2.1950108940272457e-06 0.0000000000000000e+00  1.3391700155329682e-04 1.5507982811891437e-04 0.0000000000000000e+00  1.3481798656836346e-04 -1.6468546904221696e-04 0.0000000000000000e+00  3.3022753018305151e-05 -5.2895546203341633e-09 0.0000000000000000e+00  3.1442987554612164e-05 3.1496240219230196e-08 0.0000000000000000e+00  2.2278184028958021e-19 6.3525704669897096e-22 0.0000000000000000e+00  3.1586389006002776e-05 -5.1245476468140399e-08 0.0000000000000000e+00  3.3023083693546856e-05 5.8209964905113345e-09 0.0000000000000000e+00  3.2572647587043864e-05 2.6210963692461309e-06 0.0000000000000000e+00  3.2966366244031836e-05 1.3390535302312374e-09 0.0000000000000000e+00  2.4428826988691233e-19 -2.3318954872218150e-21 0.0000000000000000e+00  3.3005551661238317e-05 1.3250641579157395e-08 0.0000000000000000e+00  3.2992900741676401e-05 -1.4709545818718745e-08 0.0000000000000000e+00  3.2721235667939157e-05 -1.1251217041951614e-08 0.0000000000000000e+00  3.2809785516762859e-05 6.2749169507196181e-09 0.0000000000000000e+00  3.2728003084063274e-05 -2.4476501323657802e-08 0.0000000000000000e+00  2.3592130901684334e-19 1.9609762145245091e-21 0.0000000000000000e+00  3.2828954564545109e-05 -9.6266300213105353e-09 0.0000000000000000e+00  3.3008980791977649e-05 2.6290105195895288e-08 0.0000000000000000e+00  3.1753489127807294e-05 7.4018265683332107e-08 0.0000000000000000e+00  3.3003782398561292e-05 -1.4196665872785502e-09 0.0000000000000000e+00  3.3003371846472012e-05 -1.5564696045556884e-07 0.0000000000000000e+00  3.2979138423082259e-05 4.6077155208066920e-09 0.0000000000000000e+00  3.2983386124847678e-05 -7.7176748146850257e-09 0.0000000000000000e+00  3.1833247046196012e-05 -4.9965043508088926e-07 0.0000000000000000e+00  3.2807483810424069e-05 1.9899937179435896e-08 0.0000000000000000e+00  3.2794433517516256e-05 -2.9487659395666033e-08 0.0000000000000000e+00  3.2761719142014866e-05 -2.1043629149741866e-08 0.0000000000000000e+00  3.2823677943813732e-05 -5.0854051253843499e-08 0.0000000000000000e+00  3.2976962757222148e-05 1.0423924685459168e-08 0.0000000000000000e+00  2.4057774311961544e-19 -2.8364312036962813e-21 0.0000000000000000e+00  3.0459368667650672e-05 -1.7537008920455559e-05 0.0000000000000000e+00  1.7979001750989519e-05 -3.3039384540126080e-05 0.0000000000000000e+00  7.6746364064800334e-06 -2.4812988073756819e-05 0.0000000000000000e+00  2.3569515761450266e-05 -8.3445169729103695e-06 0.0000000000000000e+00  3.3013900000326371e-05 1.7346687540160169e-09 0.0000000000000000e+00  3.2986862769977774e-05 -1.7410133548990344e-08 0.0000000000000000e+00  3.2982774079218717e-05 2.8114385711438886e-09 0.0000000000000000e+00  3.2982037107260573e-05 -6.2797901380904594e-09 0.0000000000000000e+00  3.2941125968335550e-05 -6.4237373436672680e-08 0.0000000000000000e+00  3.2788462967835162e-05 7.2976902704988560e-08 0.0000000000000000e+00  2.4577017887426966e-19 7.0369406582128908e-22 0.0000000000000000e+00  3.2765350416091565e-05 4.5634454349024164e-08 0.0000000000000000e+00  3.2983167747134779e-05 -9.7630881218509878e-09 0.0000000000000000e+00  3.2982176113593229e-05 2.5949655905457342e-10 0.0000000000000000e+00  3.2757583205172000e-05 2.9340451977811425e-08 0.000000000