<?xml version="1.0"?>
<VTKFile type="UnstructuredGrid"  version="0.1"  >
<UnstructuredGrid>
<Piece  NumberOfPoints="1079" NumberOfCells="1944">
<Points>
<DataArray  type="Float64"  NumberOfComponents="3"  format="ascii">0.08500000000000001 0.02 0  0.005 0.02 0  0.005 0.03 0  0 0.03 0  0 0 0  0.005 0 0  0.005 0.01 0  0.08500000000000001 0.01 0  0 0.015 0  0 0.0075 0  0 0.0225 0  0.04500000000000001 0.02 0  0.04500000000000001 0.01 0  0.025 0.01 0  0.025 0.02 0  0.065 0.02 0  0.065 0.01 0  0.035 0.02 0  0.035 0.01 0  0.07500000000000001 0.02 0  0.07500000000000001 0.01 0  0.015 0.02 0  0.015 0.01 0  0.05500000000000001 0.01 0  0.05500000000000001 0.02 0  0.07000000000000001 0.01 0  0.07000000000000001 0.02 0  0.05 0.01 0  0.03 0.01 0  0.03 0.02 0  0.04000000000000001 0.01 0  0.01 0.01 0  0.02 0.02 0  0.06 0.015 0  0.08500000000000001 0.015 0  0.05 0.02 0  0.07250000000000001 0.015 0  0.04000000000000001 0.02 0  0.03750000000000001 0.015 0  0.0525 0.015 0  0.02 0.01 0  0.01 0.02 0  0.0275 0.015 0  0.0125 0.015 0  0.08000000000000002 0.01 0  0.08000000000000002 0.02 0  0.0325 0.014375 0  0.04291666666666667 0.015 0  0.065 0.015 0  0.005 0.005 0  0.005 0.015 0  0.02208333333333334 0.015 0  0.07791666666666668 0.015 0  0.005 0.025 0  0.06 0.01 0  0.06 0.02 0  0.01729166666666667 0.01572916666666667 0  0.04770833333333334 0.01427083333333334 0  0.06875000000000001 0.01625 0  0.008750000000000001 0.01625 0  0.05625000000000001 0.01625 0  0 0.00375 0  0 0.01875 0  0 0.01125 0  0 0.02625 0  0.08145833333333334 0.01354166666666667 0  0.0675 0.01 0  0.0075 0.0125 0  0.0625 0.0175 0  0.0575 0.0125 0  0.0625 0.0125 0  0.08207465277777778 0.01707465277777778 0  0.06767857142857144 0.01321428571428571 0  0.0175 0.01 0  0.01875 0.01291382575757576 0  0.0475 0.02 0  0.04564168086314595 0.01679860519591141 0  0.00296875 0.0125 0  0.0025 0.03 0  0.0025 0 0  0.00296875 0.0175 0  0.01521990740740741 0.0132349537037037 0  0.0497800925925926 0.0167650462962963 0  0.0325 0.02 0  0.03474264705882353 0.01674632352941176 0  0.03750000000000001 0.02 0  0.03025735294117647 0.01674632352941176 0  0.0275 0.02 0  0.0525 0.02 0  0.0125 0.01 0  0.04020833333333334 0.01322916666666667 0  0.03750000000000001 0.01 0  0.0225 0.02 0  0.02479166666666667 0.01677083333333333 0  0.07520833333333335 0.01322916666666667 0  0.07250000000000001 0.01 0  0.07520833333333335 0.01677083333333334 0  0.07250000000000001 0.02 0  0.04020833333333334 0.01677083333333333 0  0.0225 0.01 0  0.02375 0.01262152777777778 0  0.04250000000000001 0.02 0  0.04250000000000001 0.01 0  0.07750000000000001 0.01 0  0.07750000000000001 0.02 0  0.05036151960784314 0.01294424019607843 0  0.0705560064935065 0.01284699675324675 0  0.05458333333333334 0.01291666666666666 0  0.0021875 0.024375 0  0.005 0.0275 0  0.01125 0.0175 0  0.01463848039215686 0.01705575980392157 0  0.01 0.01375 0  0.03625 0.0125 0  0.0021875 0.009375 0  0.05375000000000001 0.0175 0  0.07125000000000001 0.0175 0  0.005 0.0025 0  0.0021875 0.005625 0  0.02655220103578155 0.01234889948210923 0  0.002187499999999999 0.020625 0  0.02979166666666667 0.01302083333333333 0  0.0525 0.01 0  0.07895833333333334 0.0125 0  0.01994277885235332 0.01704213007736944 0  0.07934656179076068 0.01733823814273861 0  0.04505722114764669 0.01295786992263056 0  0.06625 0.0175 0  0.006250000000000001 0.0175 0  0.05750000000000001 0.02 0  0.05875000000000001 0.0175 0  0.005 0.0225 0  0.005 0.0075 0  0.002375 0.027375 0  0.002375 0.002625000000000001 0  0.0475 0.01 0  0.0175 0.02 0  0.0325 0.01 0  0.03375 0.0121875 0  0.04261299435028249 0.01749205508474576 0  0.08500000000000001 0.0125 0  0.08250000000000002 0.01 0  0.02121963399965531 0.01224824108143494 0  0.0675 0.02 0  0.0125 0.02 0  0.02720152243589744 0.0175 0  0.03715165441176471 0.0175 0  0.08500000000000001 0.0175 0  0.0275 0.01 0  0.0025 0.0149560546875 0  0.0075 0.01 0  0.0075 0.02 0  0.06526785714285716 0.0125 0  0.01281031447005516 0.0125 0  0.0625 0.015 0  0.06 0.0125 0  0.05750000000000001 0.01 0  0.0625 0.02 0  0.0625 0.01 0  0.08250000000000002 0.02 0  0.04260103740101855 0.01252623201412851 0  0.02240052247582197 0.01750164767101344 0  0.07293583459427785 0.01238479732953041 0  0.005234374999999999 0.012265625 0  0.03528131980640358 0.01454684009679821 0  0.0325 0.01760027210036557 0  0.02532593822924343 0.01428227733767297 0  0.08009952069819683 0.01527145502895417 0  0.01987282359856536 0.01482587683689801 0  0.04828232595121382 0.01210233572595705 0  0.01671767404878618 0.01789766427404295 0  0.05125 0.01829007549029352 0  0.05247215456215357 0.01288882122882024 0  0.07338729919678716 0.01799385040160642 0  0.03838729919678716 0.01200614959839357 0  0.07717482110586968 0.01780301674207099 0  0.04771860040890012 0.01773306039388322 0  0.03125 0.01160380747126437 0  0.06875000000000001 0.01154265873015873 0  0.07625000000000001 0.01154065860215054 0  0.01625 0.01153997817696946 0  0.068125 0.018125 0  0.05437500000000001 0.015625 0  0.066875 0.015625 0  0.07039794950204951 0.01494384850614853 0  0.05687500000000001 0.018125 0  0.006875 0.015625 0  0.008749999999999999 0.01833333333333333 0  0.010625 0.015625 0  0.05625 0.01416666666666667 0  0.05812500000000001 0.015625 0  0.0449088595298192 0.01494528408816316 0  0 0.016875 0  0 0.013125 0  0.04962452342047931 0.01478673066448802 0  0.0153754765795207 0.01521326933551198 0  0.0771774565913315 0.01322498191305479 0  0.01857756431135545 0.01840228599899994 0  0.04642243568864456 0.01159771400100006 0  0.08125000000000002 0.01155637254901961 0  0.08317650804863432 0.0118234919513657 0  0.08288217288011697 0.01511353252923977 0  0.02837253504384828 0.0117177464035174 0  0.03896057962520807 0.01831163685754031 0  0.01125 0.0114244162490927 0  0.00935910490099115 0.0119067901980177 0  0.02946078431372549 0.01495404411764706 0  0.02875 0.0185829434466942 0  0.002968749999999999 0.0225 0  0.064375 0.016875 0  0.00296875 0.0075 0  0 0.001875 0  0 0.005625 0  0 0.009375 0  0 0.020625 0  0 0.024375 0  0 0.028125 0  0.06062500000000001 0.01812500000000001 0  0.008303571428571429 0.01446428571428572 0  0.01375 0.01865917058160413 0  0.05137790313978056 0.01143372888932909 0  0.04125000000000001 0.01131513063942604 0  0.04101690263896279 0.01844430285842771 0  0.02399563533148224 0.01844349395710867 0  0.08125000000000002 0.01868815426145731 0  0.05354684380692146 0.01145463537600848 0  0.01699195823639423 0.01315138909884649 0  0.07598357371794873 0.015 0  0.04098357371794872 0.015 0  0.003744047619047619 0.00375 0  0.003344630281690141 0.02580853873239437 0  0.04625 0.0187354532243972 0  0.06388392857142858 0.01138392857142858 0  0.06375 0.01375 0  0.05875 0.01375 0  0.06375 0.02 0  0.00622802734375 0.01372802734375 0  0.003630681818181818 0.001369318181818182 0  0.003630681818181818 0.02863068181818182 0  0.06125 0.01625 0  0.06125 0.01125 0  0.05625000000000001 0.01 0  0.05875 0.01125 0  0.06125 0.01375 0  0.08337864763241221 0.0183786476324122 0  0.05213634138653413 0.01674432930673294 0  0.04375000000000001 0.01 0  0.07424178685897437 0.01529258578431373 0  0.03924178685897436 0.01529258578431372 0  0.03410139294454583 0.01843406022904556 0  0.03089860705545417 0.01843406022904556 0  0.02094160484316717 0.01850229584291991 0  0.04375000000000001 0.02 0  0.04437042160883325 0.01820701498672512 0  0.04816311705429156 0.01600061344661149 0  0.07151224904251052 0.0114127410511319 0  0.04395528506193162 0.01639387970349481 0  0.0128750358694518 0.0167500179347259 0  0.02855808448399799 0.01642839899839741 0  0.02812690373330794 0.01340955081400569 0  0.08358500641945087 0.01351822349116885 0  0.05590277777777778 0.01173611111111111 0  0.06683110430364615 0.01164926404662283 0  0.02573206694914602 0.01842532451809762 0  0.01438126661842046 0.01166701193099454 0  0.02384283211216029 0.01526549696571563 0  0.03625 0.02 0  0.004609375000000001 0.0182421875 0  0.003398437500000001 0.01943359375 0  0.001728307845744682 0.01894718251329787 0  0.004377805359085963 0.01656966216675735 0  0.04649673309852075 0.0153889662370871 0  0.03615513600614297 0.01592654988586041 0  0.03316985071935832 0.01598763605018279 0  0.03110111603888768 0.01529816275177977 0  0.01370614113484869 0.0138804542047638 0  0.04930041102671841 0.01842260568883502 0  0.07875000000000001 0.02 0  0.0745395359848485 0.01165101111925709 0  0.03860755698543604 0.01373741558556884 0  0.02605038706571737 0.01573944002207753 0  0.07559826163500957 0.01841729376139847 0  0.04437500000000001 0.01149157931286774 0  0.06874116707361365 0.01454618473032123 0  0.003761917372881356 0.0239307468220339 0  0.003984374999999999 0.01125 0  0.003768503289473684 0.01392539576480263 0  0.001796875 0.0111328125 0  0.003761917372881356 0.008930746822033899 0  0.005 0.00625 0  0.003761917372881355 0.0210692531779661 0  0.06633928571428571 0.01410714285714285 0  0.006484375 0.01125 0  0.08364120589325512 0.01657288979763549 0  0.03576267476503373 0.0184116442851204 0  0.07370875846579374 0.0137848203678562 0  0.06964285714285715 0.01758928571428571 0  0.05520833333333334 0.01833333333333333 0  0.06491071428571429 0.01839285714285714 0  0.0510098951944636 0.01559941474766356 0  0.01786087179886325 0.0115702210443714 0  0.01972197383235524 0.01160576093166696 0  0.01804697593127788 0.01433503795474974 0  0.001644074528704677 0.01642892723865279 0  0.00125 0.03 0  0.001497685185185185 0.001267746913580247 0  0.07315451164202422 0.01643443118912983 0  0.001233906745910645 0.0140625 0  0.01162635071030191 0.01362229857939618 0  0.01528023503083844 0.01845923557506155 0  0.06625 0.02 0  0.07695012019230771 0.01624387078484555 0  0.03139091092855769 0.01320776147621796 0  0.03857339107781042 0.01675295051810485 0  0.001754993120977522 0.02590789105493891 0  0.002288757784711197 0.00412546923654445 0  0.07914382119690884 0.01404430049871201 0  0.001391810103286306 0.01257390899021902 0  0.0419501201923077 0.01614675005432421 0  0.001484375 0.007018229166666667 0  0.001484375 0.02201822916666666 0  0.048
[...]
<PointData  Vectors="velocity"> 
<DataArray  type="Float64"  Name="velocity"  NumberOfComponents="3" format="ascii">2.0017177585319800e-06 1.4620941133177466e-20 0.0000000000000000e+00  4.1527592282319782e-20 -4.4704811088402438e-20 0.0000000000000000e+00  1.8611563782443173e-18 -9.7700995729923119e-05 0.0000000000000000e+00  -2.0265925007549244e-18 -9.7700995729922956e-05 0.0000000000000000e+00  -1.9645539548134492e-18 9.7700995729922956e-05 0.0000000000000000e+00  1.9542141971565367e-18 9.7700995729922888e-05 0.0000000000000000e+00  4.0115419764971738e-20 3.7882763590112290e-20 0.0000000000000000e+00  2.0558029566481238e-06 -1.5155015327277310e-20 0.0000000000000000e+00  4.7227303164594303e-21 -1.8152205427567998e-22 0.0000000000000000e+00  -5.0321255754164194e-22 3.6225845566102853e-20 0.0000000000000000e+00  2.1214353975089723e-22 -4.2088520587846611e-20 0.0000000000000000e+00  4.0375246753353458e-20 -1.4249514077472585e-22 0.0000000000000000e+00  3.3712787262617437e-20 2.0191401952020131e-22 0.0000000000000000e+00  3.9750459076387925e-20 1.1412305212120422e-22 0.0000000000000000e+00  3.0938575823563334e-20 -1.2925835023299088e-22 0.0000000000000000e+00  3.5324131704627915e-20 1.0266732847559733e-22 0.0000000000000000e+00  3.7874218217532005e-20 5.8453692690792934e-23 0.0000000000000000e+00  2.8295543913005367e-20 -6.5729414686009095e-23 0.0000000000000000e+00  4.2900579526546735e-20 -5.4498468847576709e-23 0.0000000000000000e+00  3.8628704081256613e-20 2.3049339013809324e-22 0.0000000000000000e+00  3.3479087719493477e-20 1.3865882758117663e-22 0.0000000000000000e+00  3.1782612508825274e-20 -7.7027887296137890e-23 0.0000000000000000e+00  3.1662212044716975e-20 -7.6977539564634904e-23 0.0000000000000000e+00  3.7572411866846811e-20 -4.2641098113714928e-22 0.0000000000000000e+00  3.4996362760278812e-20 1.5019181498103719e-22 0.0000000000000000e+00  3.4676145231895914e-20 5.6675185067821511e-23 0.0000000000000000e+00  3.9732124989839427e-20 -1.5264275362307451e-22 0.0000000000000000e+00  3.7505149684727593e-20 1.2588602241745927e-22 0.0000000000000000e+00  3.7504188816426833e-20 2.1703812972469231e-23 0.0000000000000000e+00  3.1339435226388036e-20 -7.9060486980122951e-23 0.0000000000000000e+00  3.4330311484240512e-20 1.2258561692184923e-22 0.0000000000000000e+00  3.6424229061872749e-20 1.8624307322438050e-22 0.0000000000000000e+00  3.2408177573644662e-20 -6.8887940908445187e-23 0.0000000000000000e+00  5.1064936273289122e-06 -7.4647533526617823e-10 0.0000000000000000e+00  4.9043909005900826e-06 6.5888538068843438e-24 0.0000000000000000e+00  3.2348570938165091e-20 1.3642975686306054e-23 0.0000000000000000e+00  5.1063995195060255e-06 1.7215108002956137e-09 0.0000000000000000e+00  3.6685455822817355e-20 -3.4553113703116094e-22 0.0000000000000000e+00  5.1021488404449091e-06 -2.4836588996820270e-09 0.0000000000000000e+00  5.1011744715738324e-06 -2.7788715065162149e-10 0.0000000000000000e+00  3.4348206892913118e-20 1.6520358136335721e-23 0.0000000000000000e+00  3.7920774345387390e-20 -7.0869094211661483e-22 0.0000000000000000e+00  5.1018325038729334e-06 -1.3283345308825218e-10 0.0000000000000000e+00  5.0911919017948064e-06 -1.9793691207191709e-08 0.0000000000000000e+00  3.2494712681742476e-20 -1.3558695810031041e-22 0.0000000000000000e+00  3.5954660772977283e-20 6.5112920229120972e-22 0.0000000000000000e+00  5.1006515612454626e-06 1.4956862178289120e-10 0.0000000000000000e+00  5.1058223562831043e-06 -4.9784178925375707e-10 0.0000000000000000e+00  5.1044453995849184e-06 -4.2955260940445123e-10 0.0000000000000000e+00  -2.5999806788164373e-21 4.4585314607072307e-20 0.0000000000000000e+00  3.8572818900976981e-06 -2.0141070322244804e-07 0.0000000000000000e+00  5.0998511290935829e-06 1.2465683745564371e-09 0.0000000000000000e+00  5.0985210197883561e-06 2.6247671087037793e-10 0.0000000000000000e+00  -3.8999524895828066e-21 -5.4144666508543717e-20 0.0000000000000000e+00  3.3119536244799261e-20 6.2477783693504711e-23 0.0000000000000000e+00  3.7368241863480344e-20 4.5190793932384924e-22 0.0000000000000000e+00  5.1022567810126666e-06 -1.8131803808896238e-09 0.0000000000000000e+00  5.1038825581731505e-06 1.3497351445088252e-09 0.0000000000000000e+00  5.1044838330230606e-06 -1.3022714696811631e-09 0.0000000000000000e+00  5.0260118506132741e-06 -1.6235136185581745e-07 0.0000000000000000e+00  5.1008542560879362e-06 -3.8374188179810621e-09 0.0000000000000000e+00  -2.3124039417966299e-20 7.6007509993262336e-21 0.0000000000000000e+00  2.0889809469612440e-21 -2.2206153627971579e-20 0.0000000000000000e+00  2.8617956545069495e-21 2.2030426925261044e-20 0.0000000000000000e+00  -2.6742654175210339e-20 6.3638936406249199e-21 0.0000000000000000e+00  5.0516539643561898e-06 -4.8802763470081155e-08 0.0000000000000000e+00  3.1057860839366995e-20 -8.9920930035508960e-23 0.0000000000000000e+00  5.0309394261517155e-06 2.8978582503204018e-07 0.0000000000000000e+00  5.0949752390835454e-06 1.4302502606532786e-10 0.0000000000000000e+00  5.0972548222683486e-06 4.3092332363700567e-10 0.0000000000000000e+00  5.1018215434710400e-06 -2.1894750703157302e-09 0.0000000000000000e+00  5.0461474928705836e-06 9.3316196125307324e-08 0.0000000000000000e+00  5.1012597815768704e-06 -1.0338052792393936e-09 0.0000000000000000e+00  3.3767878756635986e-20 -3.7681350102723529e-24 0.0000000000000000e+00  5.0971577255035873e-06 -8.8301701947106577e-11 0.0000000000000000e+00  4.0319518675045144e-20 6.3234639141452105e-22 0.0000000000000000e+00  5.1058146396321785e-06 -3.8899289653627310e-09 0.0000000000000000e+00  2.4404683148246762e-06 1.9906356119579110e-06 0.0000000000000000e+00  -1.1132503465815249e-19 -9.7700995729923471e-05 0.0000000000000000e+00  -1.6770040086798728e-19 9.7700995729923458e-05 0.0000000000000000e+00  2.5272814557585139e-06 -2.4856183323651461e-06 0.0000000000000000e+00  5.0951749969644532e-06 -7.1616846800201698e-09 0.0000000000000000e+00  5.0996160500086159e-06 4.5835069128471430e-09 0.0000000000000000e+00  3.3658218450662501e-20 3.2160857587185594e-22 0.0000000000000000e+00  5.0991780596845665e-06 -1.5731660370677024e-09 0.0000000000000000e+00  3.5638936628322169e-20 2.2956978119297578e-22 0.0000000000000000e+00  5.1001621366149677e-06 -1.6208695561080562e-09 0.0000000000000000e+00  3.7214133616032632e-20 7.7225163220844541e-23 0.0000000000000000e+00  3.4045077047045124e-20 -2.0483177411819366e-24 0.0000000000000000e+00  3.6490493531461447e-20 2.0912317693200339e-22 0.0000000000000000e+00  5.1018087620843419e-06 1.5785118699921598e-09 0.0000000000000000e+00  3.3175074714016553e-20 1.1439446488067849e-22 0.0000000000000000e+00  3.7166214386212190e-20 9.5420554955403739e-23 0.0000000000000000e+00  5.0985936553749164e-06 3.9059666403563692e-10 0.0000000000000000e+00  5.1035597231972700e-06 8.1303503808473179e-10 0.0000000000000000e+00  3.5544040674284028e-20 1.4675405047872005e-23 0.0000000000000000e+00  5.1025828877603293e-06 3.5011291743054008e-09 0.0000000000000000e+00  3.8252094704259499e-20 4.2264016244216781e-22 0.0000000000000000e+00  5.1049427307450881e-06 -6.4803426757671856e-09 0.0000000000000000e+00  3.2309688294425605e-20 1.2914482966521863e-23 0.0000000000000000e+00  5.0941863916535712e-06 3.4353423937291857e-09 0.0000000000000000e+00  3.6621778637273044e-20 -2.9344373908071348e-24 0.0000000000000000e+00  3.4942685614093798e-20 3.4190342994846391e-22 0.0000000000000000e+00  3.8057965671584769e-20 6.2043025301542895e-22 0.0000000000000000e+00  4.0033482072788246e-20 -2.4043959630545761e-22 0.0000000000000000e+00  5.1029013277894636e-06 3.8653909848758925e-09 0.0000000000000000e+00  5.1040946207164090e-06 6.0342378758488153e-09 0.0000000000000000e+00  5.1026058344249715e-06 6.2979855704214837e-10 0.0000000000000000e+00  -1.0693883022616608e-06 -5.6084166400627158e-06 0.0000000000000000e+00  6.8386464174501214e-21 -7.5259492103746020e-20 0.0000000000000000e+00  5.1208402961832478e-06 -4.3302736135076393e-08 0.0000000000000000e+00  5.1098932758679397e-06 -1.4254589070567520e-08 0.0000000000000000e+00  5.0420511597027679e-06 1.2505443923076110e-08 0.0000000000000000e+00  5.0904429669641012e-06 -5.4662840730652898e-09 0.0000000000000000e+00  8.5607148577171748e-07 4.5579051733549450e-06 0.0000000000000000e+00  5.0948838592073775e-06 -8.9790849440354455e-12 0.0000000000000000e+00  5.1057136990895033e-06 -2.7564523772593536e-12 0.0000000000000000e+00  1.6022311197477208e-20 4.1874736028189228e-20 0.0000000000000000e+00  -9.4314557429517252e-07 4.8454813247611735e-06 0.0000000000000000e+00  5.0941763590619094e-06 -3.4918722447534040e-09 0.0000000000000000e+00  8.5267852189906556e-07 -5.2540415793938671e-06 0.0000000000000000e+00  5.1029570364191971e-06 -8.4874053827106176e-10 0.0000000000000000e+00  3.3978052765109919e-20 -2.8235766332963945e-22 0.0000000000000000e+00  5.0930498533470426e-06 -1.5554977167148957e-08 0.0000000000000000e+00  5.0979289600585325e-06 3.6003691143193853e-11 0.0000000000000000e+00  5.0956913046144597e-06 2.3522712932154424e-08 0.0000000000000000e+00  5.1042136152560116e-06 -1.1358032934015914e-09 0.0000000000000000e+00  5.1020109367486343e-06 -6.0269216244071359e-09 0.0000000000000000e+00  5.0933589909717847e-06 -9.3932058952630719e-07 0.0000000000000000e+00  3.9517790142693860e-20 -5.1047563705549255e-22 0.0000000000000000e+00  5.0927316672605500e-06 -1.8166343651526165e-09 0.0000000000000000e+00  5.0022597170714923e-22 -4.7029290409586105e-20 0.0000000000000000e+00  3.8887517988325251e-22 4.0325856698385781e-20 0.0000000000000000e+00  -1.1698008580428984e-05 -1.2825361936080649e-05 0.0000000000000000e+00  -9.5141026667951050e-06 1.0535106818067461e-05 0.0000000000000000e+00  3.4329468943845558e-20 1.1062078981536935e-23 0.0000000000000000e+00  3.9388881982889505e-20 5.8582512053350472e-22 0.0000000000000000e+00  3.4220679896585601e-20 6.8296870128844753e-23 0.0000000000000000e+00  5.0929731093936458e-06 6.2083326033065819e-09 0.0000000000000000e+00  5.0951029906995617e-06 3.7457669999486663e-09 0.0000000000000000e+00  4.6349611966242217e-06 -1.2174689457077729e-21 0.0000000000000000e+00  3.4560317706361008e-20 -1.1597154580893744e-21 0.0000000000000000e+00  5.0950108353220190e-06 1.4349199612586821e-09 0.0000000000000000e+00  3.7260463986576989e-20 2.4075847602280890e-22 0.0000000000000000e+00  3.6031029097917332e-20 -7.8731594951747038e-23 0.0000000000000000e+00  5.1000229236125070e-06 -6.4980882563647990e-10 0.0000000000000000e+00  5.1055616365074219e-06 5.4646446398622691e-10 0.0000000000000000e+00  4.6296683081712257e-06 1.5874455639243413e-21 0.0000000000000000e+00  3.7060245144286153e-20 -4.4882803157731699e-22 0.0000000000000000e+00  1.8973555805445211e-06 -1.8632937464673227e-07 0.0000000000000000e+00  3.7697601297827690e-20 1.1951728609140502e-21 0.0000000000000000e+00  4.3250698110851618e-20 -1.7432565399266792e-21 0.0000000000000000e+00  5.1002431522262964e-06 -2.2848534294069249e-09 0.0000000000000000e+00  5.0824746470485486e-06 -6.1359922217600211e-09 0.0000000000000000e+00  5.1069565909708080e-06 3.5017860702789145e-11 0.0000000000000000e+00  5.0973201069648724e-06 3.2156447001242567e-09 0.0000000000000000e+00  3.7554210491586241e-20 4.4245408351575772e-23 0.0000000000000000e+00  4.3463660353425261e-20 1.0844065773338194e-22 0.0000000000000000e+00  3.5252681822049108e-20 -6.9139054210200699e-22 0.0000000000000000e+00  3.3794933630983892e-20 6.9922812701583429e-22 0.0000000000000000e+00  5.0963726299953778e-06 -8.2077821790104322e-10 0.0000000000000000e+00  5.0970062228106313e-06 1.9321376374228383e-09 0.0000000000000000e+00  5.0958090141953100e-06 -1.6842995514100651e-09 0.0000000000000000e+00  4.6208125946414907e-06 1.3776130155450270e-06 0.0000000000000000e+00  5.1028986319789174e-06 -1.4670240003307850e-09 0.0000000000000000e+00  5.0945667081844290e-06 1.6496892634251166e-09 0.0000000000000000e+00  5.1016453900796077e-06 1.4969276464380240e-09 0.0000000000000000e+00  5.0732692526994350e-06 5.7041506595208093e-09 0.0000000000000000e+00  5.0993248937738807e-06 3.4803264699513718e-10 0.0000000000000000e+00  5.0831906950066370e-06 1.4012286059750840e-09 0.0000000000000000e+00  5.0950439340719070e-06 9.2831051328088924e-10 0.0000000000000000e+00  5.0732188456386531e-06 3.7229903240648540e-10 0.0000000000000000e+00  5.1009183771208519e-06 -4.8957191941358655e-09 0.0000000000000000e+00  5.0857000658432907e-06 2.9853758956493503e-09 0.0000000000000000e+00  5.0810004670617574e-06 -1.8789410096596390e-09 0.0000000000000000e+00  5.0926938655294613e-06 2.0873255002596051e-09 0.0000000000000000e+00  5.0998878210825949e-06 6.3607814830366537e-09 0.0000000000000000e+00  5.0655153665506935e-06 -5.8973479219667968e-09 0.0000000000000000e+00  5.0650760666896045e-06 5.5167827797876913e-09 0.0000000000000000e+00  5.0733856413866048e-06 -7.8636002683569562e-10 0.0000000000000000e+00  5.0629589512984084e-06 -3.6802498333606146e-09 0.0000000000000000e+00  5.0758445963964633e-06 -3.1029213226042648e-09 0.0000000000000000e+00  5.1006030091921436e-06 -1.3886336671113478e-09 0.0000000000000000e+00  5.1035308679352952e-06 -9.4261535995354782e-10 0.0000000000000000e+00  5.1057703744874833e-06 1.1976804304320544e-09 0.0000000000000000e+00  5.0810182596266422e-06 -4.8130927367214876e-09 0.0000000000000000e+00  4.6762763493303243e-06 -2.8661832276410494e-07 0.0000000000000000e+00  5.2233363546469434e-06 -1.5499145164915028e-07 0.0000000000000000e+00  5.0704638041440426e-06 -4.9646528543170488e-08 0.0000000000000000e+00  5.1024432598732282e-06 -1.5562673181586768e-09 0.0000000000000000e+00  5.1051600490883050e-06 -3.4264359982647665e-09 0.0000000000000000e+00  5.1052921006009883e-06 -8.0876916130608869e-10 0.0000000000000000e+00  3.3747982283615677e-21 -1.3195840263705905e-20 0.0000000000000000e+00  4.8930117212789793e-21 1.0931463827383064e-20 0.0000000000000000e+00  5.1025664360586162e-06 2.4566099549336069e-09 0.0000000000000000e+00  5.1014602314198874e-06 -8.1217358006847964e-09 0.0000000000000000e+00  5.1060791205294962e-06 9.9300284633745380e-10 0.0000000000000000e+00  5.0666199467667411e-06 2.2687001979205092e-09 0.0000000000000000e+00  5.0764663419073868e-06 2.7323862141907883e-09 0.0000000000000000e+00  5.1043460502942986e-06 -6.8616837855551295e-08 0.0000000000000000e+00  5.0396032452090153e-06 -3.1675072689709462e-07 0.0000000000000000e+00  4.9723020275733080e-06 5.4443079488062141e-09 0.0000000000000000e+00  5.0694670504244262e-06 4.4233763338283578e-09 0.0000000000000000e+00  5.0707120029030580e-06 -4.3724974915627762e-10 0.0000000000000000e+00  4.8733316586496004e-06 2.1381783878574287e-09 0.0000000000000000e+00  5.0847077861978829e-06 6.6911569963594258e-08 0.0000000000000000e+00  5.1013250747118345e-06 -7.1076458654409928e-10 0.0000000000000000e+00  5.0511584041629525e-06 5.9936221521767250e-09 0.0000000000000000e+00  4.0073453384181746e-08 -6.0054507463140495e-06 0.0000000000000000e+00  5.1021978229058195e-06 3.1529629045933537e-09 0.0000000000000000e+00  5.7772687940599052e-08 5.2020461968996953e-06 0.0000000000000000e+00  -2.1939369558386861e-19 -2.2202018544543635e-19 0.0000000000000000e+00  -4.1697354411860830e-21 3.1315564129724051e-20 0.0000000000000000e+00  1.9583526907561787e-21 3.2832111349379820e-20 0.0000000000000000e+00  1.8959485605189589e-21 -3.4516859921144559e-20 0.0000000000000000e+00  -4.3127101991975510e-21 -3.8034986335091656e-20 0.0000000000000000e+00  -2.4290291792105717e-19 1.9705601545204251e-19 0.0000000000000000e+00  5.0852269513542081e-06 -3.5314675230315927e-09 0.0000000000000000e+00  4.9047491818440127e-06 -3.0780408020795226e-09 0.0000000000000000e+00  4.9052947839559678e-06 -1.1779880400305539e-08 0.0000000000000000e+00  4.9000172759088449e-06 1.7198472528031854e-09 0.0000000000000000e+00  4.9025268222902614e-06 -6.7649428627795627e-10 0.0000000000000000e+00  4.8983825353821307e-06 5.4019074733436618e-09 0.0000000000000000e+00  5.0589191651938790e-06 6.7006218698218698e-09 0.0000000000000000e+00  5.0807710950311484e-06 7.3949511468352465e-08 0.0000000000000000e+00  5.0605448797655737e-06 -8.8101679359011409e-10 0.0000000000000000e+00  5.0958522627470141e-06 -2.9014337268890306e-09 0.0000000000000000e+00  5.1033374346047510e-06 1.4351107516774880e-09 0.0000000000000000e+00  5.1049923680968808e-06 -1.1234407199342297e-09 0.0000000000000000e+00  -9.2214385935502422e-07 7.5379256806853109e-06 0.0000000000000000e+00  -1.8845221369828957e-06 -7.8502106857455350e-06 0.0000000000000000e+00  4.9142887918391456e-06 -1.6727511973493672e-08 0.0000000000000000e+00  5.0501984507862300e-06 6.3165975983420715e-09 0.0000000000000000e+00  5.1055603022186676e-06 -1.0251716646013372e-09 0.0000000000000000e+00  5.1044625566901787e-06 -1.1655074279936000e-09 0.0000000000000000e+00  3.6023076517949825e-20 4.1384638530609611e-22 0.0000000000000000e+00  4.5150661932156239e-06 3.2883639352103126e-07 0.0000000000000000e+00  2.0970252227158400e-05 2.4535297685290672e-05 0.0000000000000000e+00  2.1290313994435383e-05 -2.6166765170380134e-05 0.0000000000000000e+00  5.1074507600205337e-06 -8.2063035654625908e-10 0.0000000000000000e+00  4.8632636641799894e-06 4.8987573692217444e-09 0.0000000000000000e+00  3.5581001983525635e-20 1.1140860874798323e-22 0.0000000000000000e+00  4.8852812802239660e-06 -7.8618146645942429e-09 0.0000000000000000e+00  5.1074984877557964e-06 9.0104442849027028e-10 0.0000000000000000e+00  5.0377944468622845e-06 4.0543378866329035e-07 0.0000000000000000e+00  5.0987283466159455e-06 2.0873969800511393e-10 0.0000000000000000e+00  3.5868660963705844e-20 -3.6320620442927499e-22 0.0000000000000000e+00  5.1047898633144135e-06 2.0497025448061061e-09 0.0000000000000000e+00  5.1028307779049436e-06 -2.2755094149759072e-09 0.0000000000000000e+00  5.0608180573955361e-06 -1.7267960040118457e-09 0.0000000000000000e+00  5.0745123066337473e-06 9.6773034577019998e-10 0.0000000000000000e+00  5.0619485861757776e-06 -3.8348694676911374e-09 0.0000000000000000e+00  3.6110135443616868e-20 3.0342101147452259e-22 0.0000000000000000e+00  5.0774910537398982e-06 -1.4773219497251436e-09 0.0000000000000000e+00  5.1053204624758961e-06 4.0646276163178407e-09 0.0000000000000000e+00  4.9111247630463230e-06 1.1519899644527588e-08 0.0000000000000000e+00  5.1045137538485714e-06 -2.2068834449456187e-10 0.0000000000000000e+00  5.1051979774011383e-06 -2.5229526972403716e-08 0.0000000000000000e+00  5.1007060231803338e-06 7.0560428124064701e-10 0.0000000000000000e+00  5.1013574409911240e-06 -1.1985693180808944e-09 0.0000000000000000e+00  4.9236155871635973e-06 -7.7141727376058679e-08 0.0000000000000000e+00  5.0741401273924276e-06 3.0938013406085299e-09 0.0000000000000000e+00  5.0721480060650165e-06 -4.5413140182685551e-09 0.0000000000000000e+00  5.0670786632372721e-06 -3.2807168373769294e-09 0.0000000000000000e+00  5.0759806560128676e-06 -8.2433444139890489e-09 0.0000000000000000e+00  5.1003690147298467e-06 1.5780024247263210e-09 0.0000000000000000e+00  3.6348159014811464e-20 -4.3218598468881329e-22 0.0000000000000000e+00  4.7219332080802697e-06 -2.7303913343513275e-06 0.0000000000000000e+00  2.7885984003748087e-06 -5.1399564377913263e-06 0.0000000000000000e+00  1.1890903908191247e-06 -3.8634174485215189e-06 0.0000000000000000e+00  3.6495091085884744e-06 -1.3072221864501757e-06 0.0000000000000000e+00  5.1060794411737760e-06 2.6648089687684732e-10 0.0000000000000000e+00  5.1018968623308376e-06 -2.6923448601783033e-09 0.0000000000000000e+00  5.1012656572864691e-06 4.3357568405148608e-10 0.0000000000000000e+00  5.1011512557438036e-06 -9.7531341748845627e-10 0.0000000000000000e+00  5.0944409559836775e-06 -1.0887978349136877e-08 0.0000000000000000e+00  5.0712461638767669e-06 1.1297705992892492e-08 0.0000000000000000e+00  3.8763490254384154e-20 8.3563670316278081e-23 0.0000000000000000e+00  5.0676142774731471e-06 7.0731599365203809e-09 0.0000000000000000e+00  5.1013253609291353e-06 -1.5109684468217319e-09 0.0000000000000000e+00  5.1011771376065416e-06 2.4613026773741147e-11 0.0000000000000000e+00  5.0664336519542484e-06 4.5466527593853437e-09 0.000000