<?xml version="1.0"?>
<VTKFile type="UnstructuredGrid"  version="0.1"  >
<UnstructuredGrid>
<Piece  NumberOfPoints="1079" NumberOfCells="1944">
<Points>
<DataArray  type="Float64"  NumberOfComponents="3"  format="ascii">0.08500000000000001 0.02 0  0.005 0.02 0  0.005 0.03 0  0 0.03 0  0 0 0  0.005 0 0  0.005 0.01 0  0.08500000000000001 0.01 0  0 0.015 0  0 0.0075 0  0 0.0225 0  0.04500000000000001 0.02 0  0.04500000000000001 0.01 0  0.025 0.01 0  0.025 0.02 0  0.065 0.02 0  0.065 0.01 0  0.035 0.02 0  0.035 0.01 0  0.07500000000000001 0.02 0  0.07500000000000001 0.01 0  0.015 0.02 0  0.015 0.01 0  0.05500000000000001 0.01 0  0.05500000000000001 0.02 0  0.07000000000000001 0.01 0  0.07000000000000001 0.02 0  0.05 0.01 0  0.03 0.01 0  0.03 0.02 0  0.04000000000000001 0.01 0  0.01 0.01 0  0.02 0.02 0  0.06 0.015 0  0.08500000000000001 0.015 0  0.05 0.02 0  0.07250000000000001 0.015 0  0.04000000000000001 0.02 0  0.03750000000000001 0.015 0  0.0525 0.015 0  0.02 0.01 0  0.01 0.02 0  0.0275 0.015 0  0.0125 0.015 0  0.08000000000000002 0.01 0  0.08000000000000002 0.02 0  0.0325 0.014375 0  0.04291666666666667 0.015 0  0.065 0.015 0  0.005 0.005 0  0.005 0.015 0  0.02208333333333334 0.015 0  0.07791666666666668 0.015 0  0.005 0.025 0  0.06 0.01 0  0.06 0.02 0  0.01729166666666667 0.01572916666666667 0  0.04770833333333334 0.01427083333333334 0  0.06875000000000001 0.01625 0  0.008750000000000001 0.01625 0  0.05625000000000001 0.01625 0  0 0.00375 0  0 0.01875 0  0 0.01125 0  0 0.02625 0  0.08145833333333334 0.01354166666666667 0  0.0675 0.01 0  0.0075 0.0125 0  0.0625 0.0175 0  0.0575 0.0125 0  0.0625 0.0125 0  0.08207465277777778 0.01707465277777778 0  0.06767857142857144 0.01321428571428571 0  0.0175 0.01 0  0.01875 0.01291382575757576 0  0.0475 0.02 0  0.04564168086314595 0.01679860519591141 0  0.00296875 0.0125 0  0.0025 0.03 0  0.0025 0 0  0.00296875 0.0175 0  0.01521990740740741 0.0132349537037037 0  0.0497800925925926 0.0167650462962963 0  0.0325 0.02 0  0.03474264705882353 0.01674632352941176 0  0.03750000000000001 0.02 0  0.03025735294117647 0.01674632352941176 0  0.0275 0.02 0  0.0525 0.02 0  0.0125 0.01 0  0.04020833333333334 0.01322916666666667 0  0.03750000000000001 0.01 0  0.0225 0.02 0  0.02479166666666667 0.01677083333333333 0  0.07520833333333335 0.01322916666666667 0  0.07250000000000001 0.01 0  0.07520833333333335 0.01677083333333334 0  0.07250000000000001 0.02 0  0.04020833333333334 0.01677083333333333 0  0.0225 0.01 0  0.02375 0.01262152777777778 0  0.04250000000000001 0.02 0  0.04250000000000001 0.01 0  0.07750000000000001 0.01 0  0.07750000000000001 0.02 0  0.05036151960784314 0.01294424019607843 0  0.0705560064935065 0.01284699675324675 0  0.05458333333333334 0.01291666666666666 0  0.0021875 0.024375 0  0.005 0.0275 0  0.01125 0.0175 0  0.01463848039215686 0.01705575980392157 0  0.01 0.01375 0  0.03625 0.0125 0  0.0021875 0.009375 0  0.05375000000000001 0.0175 0  0.07125000000000001 0.0175 0  0.005 0.0025 0  0.0021875 0.005625 0  0.02655220103578155 0.01234889948210923 0  0.002187499999999999 0.020625 0  0.02979166666666667 0.01302083333333333 0  0.0525 0.01 0  0.07895833333333334 0.0125 0  0.01994277885235332 0.01704213007736944 0  0.07934656179076068 0.01733823814273861 0  0.04505722114764669 0.01295786992263056 0  0.06625 0.0175 0  0.006250000000000001 0.0175 0  0.05750000000000001 0.02 0  0.05875000000000001 0.0175 0  0.005 0.0225 0  0.005 0.0075 0  0.002375 0.027375 0  0.002375 0.002625000000000001 0  0.0475 0.01 0  0.0175 0.02 0  0.0325 0.01 0  0.03375 0.0121875 0  0.04261299435028249 0.01749205508474576 0  0.08500000000000001 0.0125 0  0.08250000000000002 0.01 0  0.02121963399965531 0.01224824108143494 0  0.0675 0.02 0  0.0125 0.02 0  0.02720152243589744 0.0175 0  0.03715165441176471 0.0175 0  0.08500000000000001 0.0175 0  0.0275 0.01 0  0.0025 0.0149560546875 0  0.0075 0.01 0  0.0075 0.02 0  0.06526785714285716 0.0125 0  0.01281031447005516 0.0125 0  0.0625 0.015 0  0.06 0.0125 0  0.05750000000000001 0.01 0  0.0625 0.02 0  0.0625 0.01 0  0.08250000000000002 0.02 0  0.04260103740101855 0.01252623201412851 0  0.02240052247582197 0.01750164767101344 0  0.07293583459427785 0.01238479732953041 0  0.005234374999999999 0.012265625 0  0.03528131980640358 0.01454684009679821 0  0.0325 0.01760027210036557 0  0.02532593822924343 0.01428227733767297 0  0.08009952069819683 0.01527145502895417 0  0.01987282359856536 0.01482587683689801 0  0.04828232595121382 0.01210233572595705 0  0.01671767404878618 0.01789766427404295 0  0.05125 0.01829007549029352 0  0.05247215456215357 0.01288882122882024 0  0.07338729919678716 0.01799385040160642 0  0.03838729919678716 0.01200614959839357 0  0.07717482110586968 0.01780301674207099 0  0.04771860040890012 0.01773306039388322 0  0.03125 0.01160380747126437 0  0.06875000000000001 0.01154265873015873 0  0.07625000000000001 0.01154065860215054 0  0.01625 0.01153997817696946 0  0.068125 0.018125 0  0.05437500000000001 0.015625 0  0.066875 0.015625 0  0.07039794950204951 0.01494384850614853 0  0.05687500000000001 0.018125 0  0.006875 0.015625 0  0.008749999999999999 0.01833333333333333 0  0.010625 0.015625 0  0.05625 0.01416666666666667 0  0.05812500000000001 0.015625 0  0.0449088595298192 0.01494528408816316 0  0 0.016875 0  0 0.013125 0  0.04962452342047931 0.01478673066448802 0  0.0153754765795207 0.01521326933551198 0  0.0771774565913315 0.01322498191305479 0  0.01857756431135545 0.01840228599899994 0  0.04642243568864456 0.01159771400100006 0  0.08125000000000002 0.01155637254901961 0  0.08317650804863432 0.0118234919513657 0  0.08288217288011697 0.01511353252923977 0  0.02837253504384828 0.0117177464035174 0  0.03896057962520807 0.01831163685754031 0  0.01125 0.0114244162490927 0  0.00935910490099115 0.0119067901980177 0  0.02946078431372549 0.01495404411764706 0  0.02875 0.0185829434466942 0  0.002968749999999999 0.0225 0  0.064375 0.016875 0  0.00296875 0.0075 0  0 0.001875 0  0 0.005625 0  0 0.009375 0  0 0.020625 0  0 0.024375 0  0 0.028125 0  0.06062500000000001 0.01812500000000001 0  0.008303571428571429 0.01446428571428572 0  0.01375 0.01865917058160413 0  0.05137790313978056 0.01143372888932909 0  0.04125000000000001 0.01131513063942604 0  0.04101690263896279 0.01844430285842771 0  0.02399563533148224 0.01844349395710867 0  0.08125000000000002 0.01868815426145731 0  0.05354684380692146 0.01145463537600848 0  0.01699195823639423 0.01315138909884649 0  0.07598357371794873 0.015 0  0.04098357371794872 0.015 0  0.003744047619047619 0.00375 0  0.003344630281690141 0.02580853873239437 0  0.04625 0.0187354532243972 0  0.06388392857142858 0.01138392857142858 0  0.06375 0.01375 0  0.05875 0.01375 0  0.06375 0.02 0  0.00622802734375 0.01372802734375 0  0.003630681818181818 0.001369318181818182 0  0.003630681818181818 0.02863068181818182 0  0.06125 0.01625 0  0.06125 0.01125 0  0.05625000000000001 0.01 0  0.05875 0.01125 0  0.06125 0.01375 0  0.08337864763241221 0.0183786476324122 0  0.05213634138653413 0.01674432930673294 0  0.04375000000000001 0.01 0  0.07424178685897437 0.01529258578431373 0  0.03924178685897436 0.01529258578431372 0  0.03410139294454583 0.01843406022904556 0  0.03089860705545417 0.01843406022904556 0  0.02094160484316717 0.01850229584291991 0  0.04375000000000001 0.02 0  0.04437042160883325 0.01820701498672512 0  0.04816311705429156 0.01600061344661149 0  0.07151224904251052 0.0114127410511319 0  0.04395528506193162 0.01639387970349481 0  0.0128750358694518 0.0167500179347259 0  0.02855808448399799 0.01642839899839741 0  0.02812690373330794 0.01340955081400569 0  0.08358500641945087 0.01351822349116885 0  0.05590277777777778 0.01173611111111111 0  0.06683110430364615 0.01164926404662283 0  0.02573206694914602 0.01842532451809762 0  0.01438126661842046 0.01166701193099454 0  0.02384283211216029 0.01526549696571563 0  0.03625 0.02 0  0.004609375000000001 0.0182421875 0  0.003398437500000001 0.01943359375 0  0.001728307845744682 0.01894718251329787 0  0.004377805359085963 0.01656966216675735 0  0.04649673309852075 0.0153889662370871 0  0.03615513600614297 0.01592654988586041 0  0.03316985071935832 0.01598763605018279 0  0.03110111603888768 0.01529816275177977 0  0.01370614113484869 0.0138804542047638 0  0.04930041102671841 0.01842260568883502 0  0.07875000000000001 0.02 0  0.0745395359848485 0.01165101111925709 0  0.03860755698543604 0.01373741558556884 0  0.02605038706571737 0.01573944002207753 0  0.07559826163500957 0.01841729376139847 0  0.04437500000000001 0.01149157931286774 0  0.06874116707361365 0.01454618473032123 0  0.003761917372881356 0.0239307468220339 0  0.003984374999999999 0.01125 0  0.003768503289473684 0.01392539576480263 0  0.001796875 0.0111328125 0  0.003761917372881356 0.008930746822033899 0  0.005 0.00625 0  0.003761917372881355 0.0210692531779661 0  0.06633928571428571 0.01410714285714285 0  0.006484375 0.01125 0  0.08364120589325512 0.01657288979763549 0  0.03576267476503373 0.0184116442851204 0  0.07370875846579374 0.0137848203678562 0  0.06964285714285715 0.01758928571428571 0  0.05520833333333334 0.01833333333333333 0  0.06491071428571429 0.01839285714285714 0  0.0510098951944636 0.01559941474766356 0  0.01786087179886325 0.0115702210443714 0  0.01972197383235524 0.01160576093166696 0  0.01804697593127788 0.01433503795474974 0  0.001644074528704677 0.01642892723865279 0  0.00125 0.03 0  0.001497685185185185 0.001267746913580247 0  0.07315451164202422 0.01643443118912983 0  0.001233906745910645 0.0140625 0  0.01162635071030191 0.01362229857939618 0  0.01528023503083844 0.01845923557506155 0  0.06625 0.02 0  0.07695012019230771 0.01624387078484555 0  0.03139091092855769 0.01320776147621796 0  0.03857339107781042 0.01675295051810485 0  0.001754993120977522 0.02590789105493891 0  0.002288757784711197 0.00412546923654445 0  0.07914382119690884 0.01404430049871201 0  0.001391810103286306 0.01257390899021902 0  0.0419501201923077 0.01614675005432421 0  0.001484375 0.007018229166666667 0  0.001484375 0.02201822916666666 0  0.048
[...]
<PointData  Vectors="velocity"> 
<DataArray  type="Float64"  Name="velocity"  NumberOfComponents="3" format="ascii">8.7597902050043109e-06 6.5998438187750804e-20 0.0000000000000000e+00  1.7613427071466667e-19 -2.0996493856534959e-19 0.0000000000000000e+00  7.3205484210943150e-18 -4.1320124001153645e-04 0.0000000000000000e+00  -8.6026783705515156e-18 -4.1320124001153569e-04 0.0000000000000000e+00  -8.9335506155727359e-18 4.1320124001153585e-04 0.0000000000000000e+00  8.0029724264505782e-18 4.1320124001153563e-04 0.0000000000000000e+00  1.7368281740496216e-19 1.6618536551464528e-19 0.0000000000000000e+00  8.9960296841684177e-06 -6.6948529247972305e-20 0.0000000000000000e+00  1.8991942235173751e-20 -5.8087057368217592e-22 0.0000000000000000e+00  -2.1561378736699505e-21 1.6913946367984074e-19 0.0000000000000000e+00  1.0786233235509097e-21 -1.8673942254636543e-19 0.0000000000000000e+00  1.6873331629549965e-19 -5.8687593436584868e-22 0.0000000000000000e+00  1.4441134088981083e-19 8.8804936178762091e-22 0.0000000000000000e+00  1.7116591121417313e-19 5.2267509372982757e-22 0.0000000000000000e+00  1.3974597503465549e-19 -6.1732765060473757e-22 0.0000000000000000e+00  1.5559438965133727e-19 5.6425963730188291e-22 0.0000000000000000e+00  1.5826663745674032e-19 2.2663419870431213e-22 0.0000000000000000e+00  1.2983306517572450e-19 -2.7120779392274772e-22 0.0000000000000000e+00  1.9000761405448460e-19 -1.9819372621464405e-22 0.0000000000000000e+00  1.6209360618723160e-19 1.0137979951702451e-21 0.0000000000000000e+00  1.4677837327868326e-19 6.1472901179860904e-22 0.0000000000000000e+00  1.3269820697115368e-19 -3.3167302059278195e-22 0.0000000000000000e+00  1.3593830704169921e-19 -3.0346916563943615e-22 0.0000000000000000e+00  1.5832039198854535e-19 -1.7807255879555078e-21 0.0000000000000000e+00  1.5381933174694654e-19 6.8843687284376361e-22 0.0000000000000000e+00  1.4740988935400104e-19 2.5843884390926606e-22 0.0000000000000000e+00  1.7227849395594375e-19 -6.4254295882005946e-22 0.0000000000000000e+00  1.5755092818465728e-19 5.2288975599216157e-22 0.0000000000000000e+00  1.7363050377975384e-19 1.2344043628091875e-22 0.0000000000000000e+00  1.2895183773429519e-19 -3.7126521060800336e-22 0.0000000000000000e+00  1.5111519754090980e-19 5.1828601571103126e-22 0.0000000000000000e+00  1.5392564573655196e-19 8.8489094689350325e-22 0.0000000000000000e+00  1.4489910054246810e-19 -2.9457306075029174e-22 0.0000000000000000e+00  2.2325649812517652e-05 -3.2589586565764983e-09 0.0000000000000000e+00  2.1441208092312160e-05 5.2277068268933539e-23 0.0000000000000000e+00  1.4107067271771352e-19 7.7865098000788910e-23 0.0000000000000000e+00  2.2325234942814383e-05 7.5266579819025822e-09 0.0000000000000000e+00  1.6317690749989159e-19 -1.5013522795488001e-21 0.0000000000000000e+00  2.2306654311109813e-05 -1.0857284943244262e-08 0.0000000000000000e+00  2.2302391655206236e-05 -1.2175552130790072e-09 0.0000000000000000e+00  1.5101856253743617e-19 6.8541727097371902e-23 0.0000000000000000e+00  1.6357981090167110e-19 -3.1833002973762700e-21 0.0000000000000000e+00  2.2305268742627474e-05 -5.5345822525801110e-10 0.0000000000000000e+00  2.2258748885127142e-05 -8.2237234580286058e-08 0.0000000000000000e+00  1.3943185805256772e-19 -6.5658705667299247e-22 0.0000000000000000e+00  1.4930440766519929e-19 2.7973658873549249e-21 0.0000000000000000e+00  2.2300109403589676e-05 6.5994421844327915e-10 0.0000000000000000e+00  2.2322717127511668e-05 -2.1751515371359861e-09 0.0000000000000000e+00  2.2316687778698327e-05 -1.8784866301194890e-09 0.0000000000000000e+00  -1.0997047464467611e-20 1.9187608607686475e-19 0.0000000000000000e+00  1.6864706754339162e-05 -8.4070545026364930e-07 0.0000000000000000e+00  2.2296606742055857e-05 5.6283294909296536e-09 0.0000000000000000e+00  2.2290756288980492e-05 1.1477114725379606e-09 0.0000000000000000e+00  -1.6499104173381822e-20 -2.2817980160650632e-19 0.0000000000000000e+00  1.4281790263610998e-19 3.1554436208840764e-22 0.0000000000000000e+00  1.6666537974203559e-19 2.0223861578720034e-21 0.0000000000000000e+00  2.2306882166780674e-05 -7.0891539576101759e-09 0.0000000000000000e+00  2.2314228203879035e-05 5.9015492184440977e-09 0.0000000000000000e+00  2.2316862285745151e-05 -5.6900044631888032e-09 0.0000000000000000e+00  2.1968349904879865e-05 -6.9634708927836090e-07 0.0000000000000000e+00  2.2301001367573781e-05 -1.6783813906150172e-08 0.0000000000000000e+00  -9.8618863276791477e-20 3.4645953535482425e-20 0.0000000000000000e+00  9.3861061726477814e-21 -9.1571767538027137e-20 0.0000000000000000e+00  1.2815084943452503e-20 9.5321193624332104e-20 0.0000000000000000e+00  -1.1440707668539183e-19 2.7743716096207520e-20 0.0000000000000000e+00  2.2085742673046911e-05 -2.1349265893997355e-07 0.0000000000000000e+00  1.2806236892355728e-19 -3.9068172276943267e-22 0.0000000000000000e+00  2.2011255649572407e-05 1.2827124709431491e-06 0.0000000000000000e+00  2.2275306802524943e-05 6.7527690133614889e-10 0.0000000000000000e+00  2.2285280414795453e-05 1.8640431540592258e-09 0.0000000000000000e+00  2.2305231650391622e-05 -9.6005740930191376e-09 0.0000000000000000e+00  2.2061641358549786e-05 4.0817350493129879e-07 0.0000000000000000e+00  2.2302761692776128e-05 -4.5171060184931346e-09 0.0000000000000000e+00  1.4702935944943183e-19 -2.7266829673113504e-23 0.0000000000000000e+00  2.2285166073719817e-05 1.8130853343605163e-11 0.0000000000000000e+00  1.8932643551760328e-19 2.6372375390160940e-21 0.0000000000000000e+00  2.2322685936551971e-05 -1.6995883764435252e-08 0.0000000000000000e+00  1.0683876351945587e-05 8.7641179038796606e-06 0.0000000000000000e+00  -4.1706484350113812e-19 -4.1320124001153791e-04 0.0000000000000000e+00  -7.0003424062730580e-19 4.1320124001153807e-04 0.0000000000000000e+00  1.1037218062159016e-05 -1.0807283541790190e-05 0.0000000000000000e+00  2.2277151512924149e-05 -2.9867139575008171e-08 0.0000000000000000e+00  2.2295565026261546e-05 2.0031879079167770e-08 0.0000000000000000e+00  1.5074548028402740e-19 1.3811940099861464e-21 0.0000000000000000e+00  2.2293662037970057e-05 -6.8843110435928646e-09 0.0000000000000000e+00  1.6273607117718824e-19 1.0267473937213203e-21 0.0000000000000000e+00  2.2297966613839826e-05 -7.0779076337488185e-09 0.0000000000000000e+00  1.7628148250107507e-19 3.3874541542201459e-22 0.0000000000000000e+00  1.5424770827041084e-19 -3.0811665217505836e-23 0.0000000000000000e+00  1.6302562660287239e-19 9.1782815441669423e-22 0.0000000000000000e+00  2.2305163040490150e-05 6.9035471812328350e-09 0.0000000000000000e+00  1.4926945485415774e-19 5.0873236084953151e-22 0.0000000000000000e+00  1.6196486017110758e-19 4.2781151912638025e-22 0.0000000000000000e+00  2.2291071385220814e-05 1.7606455485324347e-09 0.0000000000000000e+00  2.2312814590213285e-05 3.5611736197349391e-09 0.0000000000000000e+00  1.5821854527444644e-19 9.0826282308986940e-23 0.0000000000000000e+00  2.2308557535850333e-05 1.5304400231560660e-08 0.0000000000000000e+00  1.7478309837324996e-19 1.8412118840974596e-21 0.0000000000000000e+00  2.2318863460811852e-05 -2.8342663444426520e-08 0.0000000000000000e+00  1.4186207325552453e-19 5.0483887960040009e-23 0.0000000000000000e+00  2.2271932630660001e-05 1.5072099079437959e-08 0.0000000000000000e+00  1.6902359371049096e-19 -1.1737749563228539e-23 0.0000000000000000e+00  1.6003674962143575e-19 1.4644425416232718e-21 0.0000000000000000e+00  1.6300504027418212e-19 2.7234820496043094e-21 0.0000000000000000e+00  1.7249098618254218e-19 -1.0579672852216767e-21 0.0000000000000000e+00  2.2309928955064378e-05 1.6889722341525608e-08 0.0000000000000000e+00  2.2315162385998666e-05 2.6378886535327983e-08 0.0000000000000000e+00  2.2308645115722165e-05 2.7663755048738370e-09 0.0000000000000000e+00  -4.5329591280737999e-06 -2.4463983161378281e-05 0.0000000000000000e+00  2.7302194794684752e-20 -3.2974816797840410e-19 0.0000000000000000e+00  2.2383444052160990e-05 -1.8474601218146169e-07 0.0000000000000000e+00  2.2339188064832876e-05 -6.0703643319409812e-08 0.0000000000000000e+00  2.2048042237326399e-05 6.3509465045976203e-08 0.0000000000000000e+00  2.2255543437860551e-05 -2.3921426017409852e-08 0.0000000000000000e+00  3.7579727456591356e-06 2.0012545713361643e-05 0.0000000000000000e+00  2.2274861495234207e-05 -3.4163932214872639e-11 0.0000000000000000e+00  2.2322231684206692e-05 4.2672023818908998e-11 0.0000000000000000e+00  6.6837032459041394e-20 1.8669475656190835e-19 0.0000000000000000e+00  -4.0179085340084110e-06 2.1296104171603575e-05 0.0000000000000000e+00  2.2271790478338901e-05 -1.5290481972861761e-08 0.0000000000000000e+00  3.7301758540854527e-06 -2.2888500107424977e-05 0.0000000000000000e+00  2.2310192070810162e-05 -3.6712497334086851e-09 0.0000000000000000e+00  1.5174011848628136e-19 -1.2334352777730011e-21 0.0000000000000000e+00  2.2267007691112184e-05 -6.8131661969005498e-08 0.0000000000000000e+00  2.2287986259372513e-05 4.2661164853825631e-10 0.0000000000000000e+00  2.2278408210198004e-05 1.0291451711942459e-07 0.0000000000000000e+00  2.2315677171417785e-05 -4.9536783773627030e-09 0.0000000000000000e+00  2.2306033818816474e-05 -2.6361916672782935e-08 0.0000000000000000e+00  2.2247820146282040e-05 -4.0796869203048278e-06 0.0000000000000000e+00  1.6008465724768318e-19 -2.2313694932746637e-21 0.0000000000000000e+00  2.2265418377596904e-05 -7.8634738318897825e-09 0.0000000000000000e+00  1.9469277762989091e-21 -2.0557133127489184e-19 0.0000000000000000e+00  1.7960552520006827e-21 1.8570490226000059e-19 0.0000000000000000e+00  -4.9607127715293983e-05 -5.5590699295402930e-05 0.0000000000000000e+00  -4.0519062752624416e-05 4.5873021590518333e-05 0.0000000000000000e+00  1.5072601852786064e-19 4.7860423348690409e-23 0.0000000000000000e+00  1.8114379100823749e-19 2.5600437545213780e-21 0.0000000000000000e+00  1.4698977452174908e-19 2.9368669792694144e-22 0.0000000000000000e+00  2.2266510836679591e-05 2.7128631049686972e-08 0.0000000000000000e+00  2.2275805941047243e-05 1.6420094735446495e-08 0.0000000000000000e+00  2.0263961374372982e-05 -5.3388524246539865e-21 0.0000000000000000e+00  1.4691323246394053e-19 -4.5750974085450227e-21 0.0000000000000000e+00  2.2275611274504104e-05 6.4046555097007097e-09 0.0000000000000000e+00  1.6213408618715165e-19 1.0699147558077113e-21 0.0000000000000000e+00  1.5461591030523912e-19 -2.9767013981756417e-22 0.0000000000000000e+00  2.2297320072967852e-05 -2.8100325401810916e-09 0.0000000000000000e+00  2.2321589774741070e-05 2.3663546607554341e-09 0.0000000000000000e+00  2.0240840734396563e-05 6.7119569514470303e-21 0.0000000000000000e+00  1.5899589089286427e-19 -2.0228058300328316e-21 0.0000000000000000e+00  8.2956630329326491e-06 -7.5886418910618634e-07 0.0000000000000000e+00  1.7358430365046239e-19 5.3423199513636622e-21 0.0000000000000000e+00  1.8679707579780190e-19 -7.3693279987930494e-21 0.0000000000000000e+00  2.2298313158843491e-05 -1.0006570012370101e-08 0.0000000000000000e+00  2.2223448783292938e-05 -2.4324183407376743e-08 0.0000000000000000e+00  2.2327667708560187e-05 1.5167942727385396e-10 0.0000000000000000e+00  2.2285559141609929e-05 1.4022963642677920e-08 0.0000000000000000e+00  1.6451178947664917e-19 1.7519236326262421e-22 0.0000000000000000e+00  1.8779235528230998e-19 4.0976420296280409e-22 0.0000000000000000e+00  1.5480447810756892e-19 -2.9107360355160606e-21 0.0000000000000000e+00  1.3810942818805835e-19 3.6644608868591926e-21 0.0000000000000000e+00  2.2281323360486142e-05 -3.6166087308791717e-09 0.0000000000000000e+00  2.2284046988534068e-05 8.5737257832098729e-09 0.0000000000000000e+00  2.2278889736265125e-05 -7.3996701043266840e-09 0.0000000000000000e+00  2.0229563427393905e-05 6.0614489082548892e-06 0.0000000000000000e+00  2.2309931522006855e-05 -6.4148394949214005e-09 0.0000000000000000e+00  2.2273538164899561e-05 7.2470898326733141e-09 0.0000000000000000e+00  2.2304466587438294e-05 6.5985331658994463e-09 0.0000000000000000e+00  2.2180292197165187e-05 2.4948188515442984e-08 0.0000000000000000e+00  2.2294315533146419e-05 1.8883296866427877e-09 0.0000000000000000e+00  2.2223794412341140e-05 6.1081125532282563e-09 0.0000000000000000e+00  2.2274739892833650e-05 4.7220189697934703e-09 0.0000000000000000e+00  2.2180199866499745e-05 1.6450936705731644e-09 0.0000000000000000e+00  2.2301277954700813e-05 -2.1400868671140182e-08 0.0000000000000000e+00  2.2234770282719839e-05 1.3113725882876583e-08 0.0000000000000000e+00  2.2214217070316862e-05 -8.2293422576735042e-09 0.0000000000000000e+00  2.2265348778747882e-05 9.1803772514296233e-09 0.0000000000000000e+00  2.2296785003382909e-05 2.7869267606711375e-08 0.0000000000000000e+00  2.2146518199753545e-05 -2.5782514089864912e-08 0.0000000000000000e+00  2.2144531496313618e-05 2.4097099028069447e-08 0.0000000000000000e+00  2.2180876335552252e-05 -3.4029057305909784e-09 0.0000000000000000e+00  2.2136427370248531e-05 -1.5614006351114472e-08 0.0000000000000000e+00  2.2191681250823401e-05 -1.3531056938123115e-08 0.0000000000000000e+00  2.2299895623809363e-05 -6.0754745219535766e-09 0.0000000000000000e+00  2.2312695764833347e-05 -4.1236357783992974e-09 0.0000000000000000e+00  2.2322486460568436e-05 5.2395064208228334e-09 0.0000000000000000e+00  2.2214207485015833e-05 -2.1055798851259435e-08 0.0000000000000000e+00  2.0440805056204020e-05 -1.2274781622131100e-06 0.0000000000000000e+00  2.2822865312486716e-05 -6.7018251847579986e-07 0.0000000000000000e+00  2.2166659528638833e-05 -2.0915739024423619e-07 0.0000000000000000e+00  2.2307942518639641e-05 -6.8062053825120080e-09 0.0000000000000000e+00  2.2319822296751104e-05 -1.4980158101052695e-08 0.0000000000000000e+00  2.2320395008826690e-05 -3.5331155595086303e-09 0.0000000000000000e+00  1.4636765349972644e-20 -5.6726945501448371e-20 0.0000000000000000e+00  2.1206188320442350e-20 4.7071245044482158e-20 0.0000000000000000e+00  2.2308472675146633e-05 1.0738579737532325e-08 0.0000000000000000e+00  2.2303527614285794e-05 -3.3889903523971034e-08 0.0000000000000000e+00  2.2323817608002345e-05 4.3223419265184414e-09 0.0000000000000000e+00  2.2150780769287290e-05 1.0143171224393034e-08 0.0000000000000000e+00  2.2194392920163482e-05 1.1897358454227804e-08 0.0000000000000000e+00  2.2316244653854035e-05 -3.0017891699606333e-07 0.0000000000000000e+00  2.2032810266572074e-05 -1.3850886268461890e-06 0.0000000000000000e+00  2.1738574351214932e-05 2.3823874790395138e-08 0.0000000000000000e+00  2.2163849116598300e-05 1.9334040552854599e-08 0.0000000000000000e+00  2.2169227746021305e-05 -1.9473447280532265e-09 0.0000000000000000e+00  2.1312047219117676e-05 1.1396472903524294e-08 0.0000000000000000e+00  2.2241033052328401e-05 2.9861411350774394e-07 0.0000000000000000e+00  2.2303049652447206e-05 -3.0911961670638574e-09 0.0000000000000000e+00  2.2083738411677573e-05 2.6231149426604418e-08 0.0000000000000000e+00  2.0895916740824665e-07 -2.6153067623077024e-05 0.0000000000000000e+00  2.2306851371763974e-05 1.3793942196071872e-08 0.0000000000000000e+00  2.8106229172970359e-07 2.2825241664446801e-05 0.0000000000000000e+00  -9.1065524538906716e-19 -9.3242608286015063e-19 0.0000000000000000e+00  -1.7586639275750827e-20 1.2980074407392867e-19 0.0000000000000000e+00  8.7965121220047340e-21 1.5172550639931384e-19 0.0000000000000000e+00  8.3037627323727069e-21 -1.5445358193417325e-19 0.0000000000000000e+00  -1.7146920069098697e-20 -1.5962223773415516e-19 0.0000000000000000e+00  -1.0477386586575498e-18 7.7981643171852524e-19 0.0000000000000000e+00  2.2232674416776528e-05 -1.5434002844323453e-08 0.0000000000000000e+00  2.1446773528398670e-05 2.9252953096403888e-09 0.0000000000000000e+00  2.1443349957778113e-05 -5.0338637818570799e-08 0.0000000000000000e+00  2.1422973530930213e-05 7.2360284126505018e-09 0.0000000000000000e+00  2.1433924425603672e-05 -3.0646589342218281e-09 0.0000000000000000e+00  2.1415660377538044e-05 2.3892817245136413e-08 0.0000000000000000e+00  2.2117511789979721e-05 2.9333329552545271e-08 0.0000000000000000e+00  2.2213277885353416e-05 3.2339156560315104e-07 0.0000000000000000e+00  2.2124733077946952e-05 -3.7578119755467586e-09 0.0000000000000000e+00  2.2279667371942304e-05 -1.1892774016163678e-08 0.0000000000000000e+00  2.2311839499813636e-05 6.2712452420279757e-09 0.0000000000000000e+00  2.2319087355461631e-05 -4.9111390295787848e-09 0.0000000000000000e+00  -3.8702932959488463e-06 3.2750130280183373e-05 0.0000000000000000e+00  -7.9268050994349108e-06 -3.3982638952313836e-05 0.0000000000000000e+00  2.1484950074999128e-05 -7.3143356178702276e-08 0.0000000000000000e+00  2.2079472831359830e-05 2.7675393043378272e-08 0.0000000000000000e+00  2.2321563114932198e-05 -4.4823549125402837e-09 0.0000000000000000e+00  2.2316774847852572e-05 -5.0912129595414059e-09 0.0000000000000000e+00  1.5473490566364356e-19 1.8368776643125678e-21 0.0000000000000000e+00  1.9750583250859840e-05 1.4672020643952459e-06 0.0000000000000000e+00  9.1007704541132037e-05 1.0572005215679857e-04 0.0000000000000000e+00  9.1892990019693674e-05 -1.1242568551033588e-04 0.0000000000000000e+00  2.2329826205124216e-05 -3.5810043371813529e-09 0.0000000000000000e+00  2.1261842158732109e-05 2.1343481202012771e-08 0.0000000000000000e+00  1.5000979915688916e-19 4.3325148724917440e-22 0.0000000000000000e+00  2.1358539033779456e-05 -3.4544701673942635e-08 0.0000000000000000e+00  2.2330044084055753e-05 3.9373700193181179e-09 0.0000000000000000e+00  2.2025398690986008e-05 1.7724446636560709e-06 0.0000000000000000e+00  2.2291695439134723e-05 9.0820517511487566e-10 0.0000000000000000e+00  1.6602024394809736e-19 -1.5524599989381799e-21 0.0000000000000000e+00  2.2318193966534819e-05 8.9605183532568378e-09 0.0000000000000000e+00  2.2309635394775222e-05 -9.9472847268299335e-09 0.0000000000000000e+00  2.2125943873008648e-05 -7.5856136692602415e-09 0.0000000000000000e+00  2.2185818647205792e-05 4.2386204434369709e-09 0.0000000000000000e+00  2.2130654132360162e-05 -1.6630570300870252e-08 0.0000000000000000e+00  1.5878550057466105e-19 1.3414192649679798e-21 0.0000000000000000e+00  2.2198804241994216e-05 -6.4901072203446320e-09 0.0000000000000000e+00  2.2320513119872109e-05 1.7774692597663681e-08 0.0000000000000000e+00  2.1471529853966175e-05 5.0171194832987945e-08 0.0000000000000000e+00  2.2316993466815122e-05 -9.6184041504697926e-10 0.0000000000000000e+00  2.2317912555874548e-05 -1.0709930287290919e-07 0.0000000000000000e+00  2.2300335478551633e-05 3.1043929007879892e-09 0.0000000000000000e+00  2.2303199020073286e-05 -5.2263572034026973e-09 0.0000000000000000e+00  2.1525721099037003e-05 -3.3763278366818948e-07 0.0000000000000000e+00  2.2184235397915380e-05 1.3483028115697570e-08 0.0000000000000000e+00  2.2175454743610525e-05 -1.9906899212706849e-08 0.0000000000000000e+00  2.2153316150949888e-05 -1.4272540837042762e-08 0.0000000000000000e+00  2.2194127765839922e-05 -3.4993045254882781e-08 0.0000000000000000e+00  2.2298863466986963e-05 6.9938947907536734e-09 0.0000000000000000e+00  1.6150088494638532e-19 -1.8999431139711480e-21 0.0000000000000000e+00  2.0613971889610539e-05 -1.1887277002933086e-05 0.0000000000000000e+00  1.2169987640100074e-05 -2.2388995597388761e-05 0.0000000000000000e+00  5.1929233224356244e-06 -1.6819619156807465e-05 0.0000000000000000e+00  1.5944215318086144e-05 -5.6691166161272631e-06 0.0000000000000000e+00  2.2323836368350251e-05 1.1699447817606159e-09 0.0000000000000000e+00  2.2305552442770872e-05 -1.1771959124112778e-08 0.0000000000000000e+00  2.2302789622381764e-05 1.8990896600656914e-09 0.0000000000000000e+00  2.2302290601676956e-05 -4.2529234732724946e-09 0.0000000000000000e+00  2.2274013774105870e-05 -4.4961622375024381e-08 0.0000000000000000e+00  2.2171453678612773e-05 4.9364627744569571e-08 0.0000000000000000e+00  1.8143243571346608e-19 4.1719005330833568e-22 0.0000000000000000e+00  2.2155729468405240e-05 3.0883118765296608e-08 0.0000000000000000e+00  2.2303053890296498e-05 -6.6033482100910201e-09 0.0000000000000000e+00  2.2302391638665604e-05 1.5066276335831176e-10 0.0000000000000000e+00  2.2150511955510513e-05 1.9854469221492714e-08 0.000000000