<?xml version="1.0"?>
<VTKFile type="UnstructuredGrid"  version="0.1"  >
<UnstructuredGrid>
<Piece  NumberOfPoints="1079" NumberOfCells="1944">
<Points>
<DataArray  type="Float64"  NumberOfComponents="3"  format="ascii">0.08500000000000001 0.02 0  0.005 0.02 0  0.005 0.03 0  0 0.03 0  0 0 0  0.005 0 0  0.005 0.01 0  0.08500000000000001 0.01 0  0 0.015 0  0 0.0075 0  0 0.0225 0  0.04500000000000001 0.02 0  0.04500000000000001 0.01 0  0.025 0.01 0  0.025 0.02 0  0.065 0.02 0  0.065 0.01 0  0.035 0.02 0  0.035 0.01 0  0.07500000000000001 0.02 0  0.07500000000000001 0.01 0  0.015 0.02 0  0.015 0.01 0  0.05500000000000001 0.01 0  0.05500000000000001 0.02 0  0.07000000000000001 0.01 0  0.07000000000000001 0.02 0  0.05 0.01 0  0.03 0.01 0  0.03 0.02 0  0.04000000000000001 0.01 0  0.01 0.01 0  0.02 0.02 0  0.06 0.015 0  0.08500000000000001 0.015 0  0.05 0.02 0  0.07250000000000001 0.015 0  0.04000000000000001 0.02 0  0.03750000000000001 0.015 0  0.0525 0.015 0  0.02 0.01 0  0.01 0.02 0  0.0275 0.015 0  0.0125 0.015 0  0.08000000000000002 0.01 0  0.08000000000000002 0.02 0  0.0325 0.014375 0  0.04291666666666667 0.015 0  0.065 0.015 0  0.005 0.005 0  0.005 0.015 0  0.02208333333333334 0.015 0  0.07791666666666668 0.015 0  0.005 0.025 0  0.06 0.01 0  0.06 0.02 0  0.01729166666666667 0.01572916666666667 0  0.04770833333333334 0.01427083333333334 0  0.06875000000000001 0.01625 0  0.008750000000000001 0.01625 0  0.05625000000000001 0.01625 0  0 0.00375 0  0 0.01875 0  0 0.01125 0  0 0.02625 0  0.08145833333333334 0.01354166666666667 0  0.0675 0.01 0  0.0075 0.0125 0  0.0625 0.0175 0  0.0575 0.0125 0  0.0625 0.0125 0  0.08207465277777778 0.01707465277777778 0  0.06767857142857144 0.01321428571428571 0  0.0175 0.01 0  0.01875 0.01291382575757576 0  0.0475 0.02 0  0.04564168086314595 0.01679860519591141 0  0.00296875 0.0125 0  0.0025 0.03 0  0.0025 0 0  0.00296875 0.0175 0  0.01521990740740741 0.0132349537037037 0  0.0497800925925926 0.0167650462962963 0  0.0325 0.02 0  0.03474264705882353 0.01674632352941176 0  0.03750000000000001 0.02 0  0.03025735294117647 0.01674632352941176 0  0.0275 0.02 0  0.0525 0.02 0  0.0125 0.01 0  0.04020833333333334 0.01322916666666667 0  0.03750000000000001 0.01 0  0.0225 0.02 0  0.02479166666666667 0.01677083333333333 0  0.07520833333333335 0.01322916666666667 0  0.07250000000000001 0.01 0  0.07520833333333335 0.01677083333333334 0  0.07250000000000001 0.02 0  0.04020833333333334 0.01677083333333333 0  0.0225 0.01 0  0.02375 0.01262152777777778 0  0.04250000000000001 0.02 0  0.04250000000000001 0.01 0  0.07750000000000001 0.01 0  0.07750000000000001 0.02 0  0.05036151960784314 0.01294424019607843 0  0.0705560064935065 0.01284699675324675 0  0.05458333333333334 0.01291666666666666 0  0.0021875 0.024375 0  0.005 0.0275 0  0.01125 0.0175 0  0.01463848039215686 0.01705575980392157 0  0.01 0.01375 0  0.03625 0.0125 0  0.0021875 0.009375 0  0.05375000000000001 0.0175 0  0.07125000000000001 0.0175 0  0.005 0.0025 0  0.0021875 0.005625 0  0.02655220103578155 0.01234889948210923 0  0.002187499999999999 0.020625 0  0.02979166666666667 0.01302083333333333 0  0.0525 0.01 0  0.07895833333333334 0.0125 0  0.01994277885235332 0.01704213007736944 0  0.07934656179076068 0.01733823814273861 0  0.04505722114764669 0.01295786992263056 0  0.06625 0.0175 0  0.006250000000000001 0.0175 0  0.05750000000000001 0.02 0  0.05875000000000001 0.0175 0  0.005 0.0225 0  0.005 0.0075 0  0.002375 0.027375 0  0.002375 0.002625000000000001 0  0.0475 0.01 0  0.0175 0.02 0  0.0325 0.01 0  0.03375 0.0121875 0  0.04261299435028249 0.01749205508474576 0  0.08500000000000001 0.0125 0  0.08250000000000002 0.01 0  0.02121963399965531 0.01224824108143494 0  0.0675 0.02 0  0.0125 0.02 0  0.02720152243589744 0.0175 0  0.03715165441176471 0.0175 0  0.08500000000000001 0.0175 0  0.0275 0.01 0  0.0025 0.0149560546875 0  0.0075 0.01 0  0.0075 0.02 0  0.06526785714285716 0.0125 0  0.01281031447005516 0.0125 0  0.0625 0.015 0  0.06 0.0125 0  0.05750000000000001 0.01 0  0.0625 0.02 0  0.0625 0.01 0  0.08250000000000002 0.02 0  0.04260103740101855 0.01252623201412851 0  0.02240052247582197 0.01750164767101344 0  0.07293583459427785 0.01238479732953041 0  0.005234374999999999 0.012265625 0  0.03528131980640358 0.01454684009679821 0  0.0325 0.01760027210036557 0  0.02532593822924343 0.01428227733767297 0  0.08009952069819683 0.01527145502895417 0  0.01987282359856536 0.01482587683689801 0  0.04828232595121382 0.01210233572595705 0  0.01671767404878618 0.01789766427404295 0  0.05125 0.01829007549029352 0  0.05247215456215357 0.01288882122882024 0  0.07338729919678716 0.01799385040160642 0  0.03838729919678716 0.01200614959839357 0  0.07717482110586968 0.01780301674207099 0  0.04771860040890012 0.01773306039388322 0  0.03125 0.01160380747126437 0  0.06875000000000001 0.01154265873015873 0  0.07625000000000001 0.01154065860215054 0  0.01625 0.01153997817696946 0  0.068125 0.018125 0  0.05437500000000001 0.015625 0  0.066875 0.015625 0  0.07039794950204951 0.01494384850614853 0  0.05687500000000001 0.018125 0  0.006875 0.015625 0  0.008749999999999999 0.01833333333333333 0  0.010625 0.015625 0  0.05625 0.01416666666666667 0  0.05812500000000001 0.015625 0  0.0449088595298192 0.01494528408816316 0  0 0.016875 0  0 0.013125 0  0.04962452342047931 0.01478673066448802 0  0.0153754765795207 0.01521326933551198 0  0.0771774565913315 0.01322498191305479 0  0.01857756431135545 0.01840228599899994 0  0.04642243568864456 0.01159771400100006 0  0.08125000000000002 0.01155637254901961 0  0.08317650804863432 0.0118234919513657 0  0.08288217288011697 0.01511353252923977 0  0.02837253504384828 0.0117177464035174 0  0.03896057962520807 0.01831163685754031 0  0.01125 0.0114244162490927 0  0.00935910490099115 0.0119067901980177 0  0.02946078431372549 0.01495404411764706 0  0.02875 0.0185829434466942 0  0.002968749999999999 0.0225 0  0.064375 0.016875 0  0.00296875 0.0075 0  0 0.001875 0  0 0.005625 0  0 0.009375 0  0 0.020625 0  0 0.024375 0  0 0.028125 0  0.06062500000000001 0.01812500000000001 0  0.008303571428571429 0.01446428571428572 0  0.01375 0.01865917058160413 0  0.05137790313978056 0.01143372888932909 0  0.04125000000000001 0.01131513063942604 0  0.04101690263896279 0.01844430285842771 0  0.02399563533148224 0.01844349395710867 0  0.08125000000000002 0.01868815426145731 0  0.05354684380692146 0.01145463537600848 0  0.01699195823639423 0.01315138909884649 0  0.07598357371794873 0.015 0  0.04098357371794872 0.015 0  0.003744047619047619 0.00375 0  0.003344630281690141 0.02580853873239437 0  0.04625 0.0187354532243972 0  0.06388392857142858 0.01138392857142858 0  0.06375 0.01375 0  0.05875 0.01375 0  0.06375 0.02 0  0.00622802734375 0.01372802734375 0  0.003630681818181818 0.001369318181818182 0  0.003630681818181818 0.02863068181818182 0  0.06125 0.01625 0  0.06125 0.01125 0  0.05625000000000001 0.01 0  0.05875 0.01125 0  0.06125 0.01375 0  0.08337864763241221 0.0183786476324122 0  0.05213634138653413 0.01674432930673294 0  0.04375000000000001 0.01 0  0.07424178685897437 0.01529258578431373 0  0.03924178685897436 0.01529258578431372 0  0.03410139294454583 0.01843406022904556 0  0.03089860705545417 0.01843406022904556 0  0.02094160484316717 0.01850229584291991 0  0.04375000000000001 0.02 0  0.04437042160883325 0.01820701498672512 0  0.04816311705429156 0.01600061344661149 0  0.07151224904251052 0.0114127410511319 0  0.04395528506193162 0.01639387970349481 0  0.0128750358694518 0.0167500179347259 0  0.02855808448399799 0.01642839899839741 0  0.02812690373330794 0.01340955081400569 0  0.08358500641945087 0.01351822349116885 0  0.05590277777777778 0.01173611111111111 0  0.06683110430364615 0.01164926404662283 0  0.02573206694914602 0.01842532451809762 0  0.01438126661842046 0.01166701193099454 0  0.02384283211216029 0.01526549696571563 0  0.03625 0.02 0  0.004609375000000001 0.0182421875 0  0.003398437500000001 0.01943359375 0  0.001728307845744682 0.01894718251329787 0  0.004377805359085963 0.01656966216675735 0  0.04649673309852075 0.0153889662370871 0  0.03615513600614297 0.01592654988586041 0  0.03316985071935832 0.01598763605018279 0  0.03110111603888768 0.01529816275177977 0  0.01370614113484869 0.0138804542047638 0  0.04930041102671841 0.01842260568883502 0  0.07875000000000001 0.02 0  0.0745395359848485 0.01165101111925709 0  0.03860755698543604 0.01373741558556884 0  0.02605038706571737 0.01573944002207753 0  0.07559826163500957 0.01841729376139847 0  0.04437500000000001 0.01149157931286774 0  0.06874116707361365 0.01454618473032123 0  0.003761917372881356 0.0239307468220339 0  0.003984374999999999 0.01125 0  0.003768503289473684 0.01392539576480263 0  0.001796875 0.0111328125 0  0.003761917372881356 0.008930746822033899 0  0.005 0.00625 0  0.003761917372881355 0.0210692531779661 0  0.06633928571428571 0.01410714285714285 0  0.006484375 0.01125 0  0.08364120589325512 0.01657288979763549 0  0.03576267476503373 0.0184116442851204 0  0.07370875846579374 0.0137848203678562 0  0.06964285714285715 0.01758928571428571 0  0.05520833333333334 0.01833333333333333 0  0.06491071428571429 0.01839285714285714 0  0.0510098951944636 0.01559941474766356 0  0.01786087179886325 0.0115702210443714 0  0.01972197383235524 0.01160576093166696 0  0.01804697593127788 0.01433503795474974 0  0.001644074528704677 0.01642892723865279 0  0.00125 0.03 0  0.001497685185185185 0.001267746913580247 0  0.07315451164202422 0.01643443118912983 0  0.001233906745910645 0.0140625 0  0.01162635071030191 0.01362229857939618 0  0.01528023503083844 0.01845923557506155 0  0.06625 0.02 0  0.07695012019230771 0.01624387078484555 0  0.03139091092855769 0.01320776147621796 0  0.03857339107781042 0.01675295051810485 0  0.001754993120977522 0.02590789105493891 0  0.002288757784711197 0.00412546923654445 0  0.07914382119690884 0.01404430049871201 0  0.001391810103286306 0.01257390899021902 0  0.0419501201923077 0.01614675005432421 0  0.001484375 0.007018229166666667 0  0.001484375 0.02201822916666666 0  0.048
[...]
<PointData  Vectors="velocity"> 
<DataArray  type="Float64"  Name="velocity"  NumberOfComponents="3" format="ascii">1.2521255552799682e-06 9.2299795980394067e-21 0.0000000000000000e+00  2.6178492979695121e-20 -2.9355711785777774e-20 0.0000000000000000e+00  1.1864871911307523e-18 -6.1359072734132146e-05 0.0000000000000000e+00  -1.2407709188295456e-18 -6.1359072734132024e-05 0.0000000000000000e+00  -1.3028094647710242e-18 6.1359072734132078e-05 0.0000000000000000e+00  1.2407709188295471e-18 6.1359072734131983e-05 0.0000000000000000e+00  2.4783984337894160e-20 2.3964549200881687e-20 0.0000000000000000e+00  1.2859642968064884e-06 -9.4927019082945794e-21 0.0000000000000000e+00  2.8538423837428645e-21 -2.3203253894369527e-22 0.0000000000000000e+00  -3.2137371471472999e-22 2.3630179380043585e-20 0.0000000000000000e+00  1.3303415457932172e-22 -2.7118646777372642e-20 0.0000000000000000e+00  2.3858596777100098e-20 -8.0602155095750637e-23 0.0000000000000000e+00  1.9426558075726461e-20 1.2631569973206531e-22 0.0000000000000000e+00  2.4653973252295242e-20 7.0001128624530476e-23 0.0000000000000000e+00  2.0791182421793428e-20 -8.3309379384987667e-23 0.0000000000000000e+00  2.2077582315392449e-20 7.5871155743466420e-23 0.0000000000000000e+00  2.3360722050696351e-20 3.3498945563685667e-23 0.0000000000000000e+00  1.9060138368595433e-20 -4.1758127242644124e-23 0.0000000000000000e+00  2.7507469379056711e-20 -3.5483277042146508e-23 0.0000000000000000e+00  2.3098733890568299e-20 1.4564145628519867e-22 0.0000000000000000e+00  2.1184507483521296e-20 8.3737125004618220e-23 0.0000000000000000e+00  1.9719139147811300e-20 -5.1653995010351289e-23 0.0000000000000000e+00  1.8968568212239522e-20 -4.0893564831137260e-23 0.0000000000000000e+00  2.3088390498329530e-20 -2.6557578231250076e-22 0.0000000000000000e+00  2.1602622741674509e-20 9.6825641588359881e-23 0.0000000000000000e+00  2.1908359539817084e-20 3.5988742518066660e-23 0.0000000000000000e+00  2.4951774493619160e-20 -9.0561308326450416e-23 0.0000000000000000e+00  2.2487852622899929e-20 6.7884090230514884e-23 0.0000000000000000e+00  2.3396710384321831e-20 1.0851906486234616e-23 0.0000000000000000e+00  2.0012584614591841e-20 -4.7152667122674224e-23 0.0000000000000000e+00  2.1076386173250766e-20 7.4093822345430445e-23 0.0000000000000000e+00  2.2265973911576697e-20 1.3188278535432019e-22 0.0000000000000000e+00  2.0547113598721920e-20 -4.3697574456849559e-23 0.0000000000000000e+00  3.1945768869830746e-06 -4.6706202466667130e-10 0.0000000000000000e+00  3.0681566711783781e-06 5.4218617375448115e-24 0.0000000000000000e+00  2.0450748618123776e-20 1.4732633461323553e-23 0.0000000000000000e+00  3.1945180684314133e-06 1.0769588004311805e-09 0.0000000000000000e+00  2.2921072798096280e-20 -2.1254635967344803e-22 0.0000000000000000e+00  3.1918588276260955e-06 -1.5537764479344997e-09 0.0000000000000000e+00  3.1912493141673432e-06 -1.7380196726219432e-10 0.0000000000000000e+00  2.0651504557515945e-20 1.0187698567556795e-23 0.0000000000000000e+00  2.2925958346067542e-20 -4.5697011568175163e-22 0.0000000000000000e+00  3.1916609707347282e-06 -8.3556897497068281e-11 0.0000000000000000e+00  3.1850043136993696e-06 -1.2454664823960612e-08 0.0000000000000000e+00  2.0161492186626582e-20 -8.8564247099564455e-23 0.0000000000000000e+00  2.2411915016631909e-20 3.9461791430875691e-22 0.0000000000000000e+00  3.1909221228998287e-06 9.3468644264833926e-11 0.0000000000000000e+00  3.1941569121124600e-06 -3.1146807013364586e-10 0.0000000000000000e+00  3.1932956476410303e-06 -2.6871668576024546e-10 0.0000000000000000e+00  -1.5923326645382966e-21 2.8861029544756628e-20 0.0000000000000000e+00  2.4130711378111379e-06 -1.2666716441858017e-07 0.0000000000000000e+00  3.1904214305366360e-06 7.7685920885592405e-10 0.0000000000000000e+00  3.1895898859403319e-06 1.6420049327749090e-10 0.0000000000000000e+00  -2.5756593477286108e-21 -3.2278619066836340e-20 0.0000000000000000e+00  2.0275618530352720e-20 4.5911704683863310e-23 0.0000000000000000e+00  2.3271956391432845e-20 2.8700633265711556e-22 0.0000000000000000e+00  3.1919304293455632e-06 -1.1483184154635141e-09 0.0000000000000000e+00  3.1929435204066227e-06 8.4437444874686668e-10 0.0000000000000000e+00  3.1933195883854956e-06 -8.1474561830731615e-10 0.0000000000000000e+00  3.1443192133593150e-06 -1.0179043562957287e-07 0.0000000000000000e+00  3.1910488360239229e-06 -2.4005507064647740e-09 0.0000000000000000e+00  -1.3887433337872464e-20 4.1663859738485026e-21 0.0000000000000000e+00  1.2698428701562356e-21 -1.2362188617633663e-20 0.0000000000000000e+00  1.7548746938014313e-21 1.3895007831945691e-20 0.0000000000000000e+00  -1.6946548234023664e-20 3.8969910495961589e-21 0.0000000000000000e+00  3.1602720281747707e-06 -3.0528563459719183e-08 0.0000000000000000e+00  1.9565084141099032e-20 -5.6050267681866279e-23 0.0000000000000000e+00  3.1470448312668054e-06 1.8102332105714062e-07 0.0000000000000000e+00  3.1873708405066873e-06 8.8682091846866525e-11 0.0000000000000000e+00  3.1887968097472474e-06 2.6989953939661805e-10 0.0000000000000000e+00  3.1916539407678249e-06 -1.3692688271998804e-09 0.0000000000000000e+00  3.1568276576591770e-06 5.8374696609748897e-08 0.0000000000000000e+00  3.1913027298946272e-06 -6.4678241468001078e-10 0.0000000000000000e+00  2.1270637959215166e-20 -3.6322601571848280e-24 0.0000000000000000e+00  3.1887308595390258e-06 -6.1995537675470591e-11 0.0000000000000000e+00  2.4980571353017100e-20 3.9246134749720193e-22 0.0000000000000000e+00  3.1941520442249372e-06 -2.4336787062843697e-09 0.0000000000000000e+00  1.5264988968453547e-06 1.2443038968067977e-06 0.0000000000000000e+00  -6.6662517976885104e-20 -6.1359072734132349e-05 0.0000000000000000e+00  -1.0324876075137148e-19 6.1359072734132390e-05 0.0000000000000000e+00  1.5812464666033289e-06 -1.5559820933259603e-06 0.0000000000000000e+00  3.1874795486015292e-06 -4.5044250716965008e-09 0.0000000000000000e+00  3.1902745889329868e-06 2.8675167626110201e-09 0.0000000000000000e+00  2.1111363244496351e-20 1.9333095192553246e-22 0.0000000000000000e+00  3.1900003979514310e-06 -9.8405856564490840e-10 0.0000000000000000e+00  2.1598332467963417e-20 1.4538708529358859e-22 0.0000000000000000e+00  3.1906159973528408e-06 -1.0141455431861523e-09 0.0000000000000000e+00  2.4948883314998617e-20 5.0802371192507543e-23 0.0000000000000000e+00  2.0747267480310645e-20 -3.2166385055646999e-24 0.0000000000000000e+00  2.3504930820520655e-20 1.1915613028444423e-22 0.0000000000000000e+00  3.1916461481020884e-06 9.8746630146393676e-10 0.0000000000000000e+00  2.1794611631669172e-20 6.9283490887429907e-23 0.0000000000000000e+00  2.3082793571528247e-20 6.3530805037333524e-23 0.0000000000000000e+00  3.1896353976604527e-06 2.4346395739118290e-10 0.0000000000000000e+00  3.1927415921403640e-06 5.0852290584640474e-10 0.0000000000000000e+00  2.2870117507872462e-20 3.2022567696816188e-24 0.0000000000000000e+00  3.1921302754999304e-06 2.1903156427631145e-09 0.0000000000000000e+00  2.4130720798517180e-20 2.6358249777815753e-22 0.0000000000000000e+00  3.1936067523287773e-06 -4.0538775385825072e-09 0.0000000000000000e+00  1.9986923456551655e-20 7.1910189245405831e-24 0.0000000000000000e+00  3.1868760957425143e-06 2.1482215700372748e-09 0.0000000000000000e+00  2.2912087147422109e-20 -3.6680467385089187e-24 0.0000000000000000e+00  2.1696107069079201e-20 2.1199335830999067e-22 0.0000000000000000e+00  2.4386170957162974e-20 4.0630012417912842e-22 0.0000000000000000e+00  2.4756434474187235e-20 -1.5394250536916975e-22 0.0000000000000000e+00  3.1923298195391981e-06 2.4183099851643198e-09 0.0000000000000000e+00  3.1930760730156454e-06 3.7750111452698596e-09 0.0000000000000000e+00  3.1921448329312728e-06 3.9379128608084514e-10 0.0000000000000000e+00  -6.7140946722959429e-07 -3.5095033895530794e-06 0.0000000000000000e+00  4.6431413071315638e-21 -4.8802100170302417e-20 0.0000000000000000e+00  3.2036345130305129e-06 -2.7166146877724220e-08 0.0000000000000000e+00  3.1967258310396357e-06 -8.9445846602787589e-09 0.0000000000000000e+00  3.1541931981158931e-06 7.6754848956776405e-09 0.0000000000000000e+00  3.1845346648264955e-06 -3.4192971936204170e-09 0.0000000000000000e+00  5.3529559190515220e-07 2.8499574283493079e-06 0.0000000000000000e+00  3.1873144002720175e-06 -5.6976588929487396e-12 0.0000000000000000e+00  3.1940891034340481e-06 -2.5939376543048430e-12 0.0000000000000000e+00  9.0802772094398315e-21 2.6084632239371108e-20 0.0000000000000000e+00  -5.9179655643385916e-07 3.0294202163760947e-06 0.0000000000000000e+00  3.1868714189428567e-06 -2.1841251245606559e-09 0.0000000000000000e+00  5.3338828133841454e-07 -3.2882550957262441e-06 0.0000000000000000e+00  3.1923643521964871e-06 -5.3160004944718643e-10 0.0000000000000000e+00  1.9958237965132537e-20 -1.8340988088713619e-22 0.0000000000000000e+00  3.1861644455946292e-06 -9.7290678770083916e-09 0.0000000000000000e+00  3.1892225635285800e-06 1.8017026079320981e-11 0.0000000000000000e+00  3.1878192668149867e-06 1.4714439992302962e-08 0.0000000000000000e+00  3.1931506012605457e-06 -7.1074030238157640e-10 0.0000000000000000e+00  3.1917728360070264e-06 -3.7701946643238350e-09 0.0000000000000000e+00  3.1867018189502125e-06 -5.8808248067403145e-07 0.0000000000000000e+00  2.3145058304967238e-20 -3.2314619237149083e-22 0.0000000000000000e+00  3.1859685453514816e-06 -1.1377231608886208e-09 0.0000000000000000e+00  2.8183578765611035e-22 -2.9090282727579032e-20 0.0000000000000000e+00  2.3354055443041583e-22 2.7123746849219044e-20 0.0000000000000000e+00  -7.3442731083588002e-06 -8.0312708647278485e-06 0.0000000000000000e+00  -5.9700813525946721e-06 6.5936496699475329e-06 0.0000000000000000e+00  2.1961613129059450e-20 6.8855797742219699e-24 0.0000000000000000e+00  2.4857808456621911e-20 3.6156796687281172e-22 0.0000000000000000e+00  2.0664459856447000e-20 4.5562100326850505e-23 0.0000000000000000e+00  3.1861189988890758e-06 3.8841018309198215e-09 0.0000000000000000e+00  3.1874517012316478e-06 2.3426278811490232e-09 0.0000000000000000e+00  2.8995926746461735e-06 -7.4982868115896829e-22 0.0000000000000000e+00  2.1552375248616276e-20 -7.4325406506415230e-22 0.0000000000000000e+00  3.1873905926982664e-06 8.9546698461779760e-10 0.0000000000000000e+00  2.3086055153785283e-20 1.5909295868758185e-22 0.0000000000000000e+00  2.0569438067393419e-20 -4.5836887471907525e-23 0.0000000000000000e+00  3.1905295229363567e-06 -4.0702349883838880e-10 0.0000000000000000e+00  3.1939936100530253e-06 3.4222431371806379e-10 0.0000000000000000e+00  2.8962811743101392e-06 9.8230115322031472e-22 0.0000000000000000e+00  2.2431904202546052e-20 -2.8538332241094645e-22 0.0000000000000000e+00  1.1869618732017405e-06 -1.1749842564650042e-07 0.0000000000000000e+00  2.4108931062564220e-20 7.4484268552666450e-22 0.0000000000000000e+00  2.8966308252789266e-20 -1.0641897201336226e-21 0.0000000000000000e+00  3.1906667953772326e-06 -1.4291110090695817e-09 0.0000000000000000e+00  3.1795037794738574e-06 -3.8805075425326381e-09 0.0000000000000000e+00  3.1948666112053430e-06 2.1929451784608271e-11 0.0000000000000000e+00  3.1888377590287819e-06 2.0122489178101193e-09 0.0000000000000000e+00  2.2948770572993722e-20 2.5283948238361457e-23 0.0000000000000000e+00  2.5674736073753319e-20 7.1502778860533010e-23 0.0000000000000000e+00  2.2218301999857105e-20 -4.2540130770358701e-22 0.0000000000000000e+00  2.1141206321045855e-20 4.3993090713904201e-22 0.0000000000000000e+00  3.1882465072039279e-06 -5.1302651132570944e-10 0.0000000000000000e+00  3.1886437130413034e-06 1.2066319354582916e-09 0.0000000000000000e+00  3.1878934313475982e-06 -1.0531142973617457e-09 0.0000000000000000e+00  2.8902832167718806e-06 8.6117878089668073e-07 0.0000000000000000e+00  3.1923279044204323e-06 -9.1774313281341266e-10 0.0000000000000000e+00  3.1871149910970588e-06 1.0314766228134955e-09 0.0000000000000000e+00  3.1915436484023070e-06 9.3556033245573799e-10 0.0000000000000000e+00  3.1737936087692115e-06 3.5683135576830425e-09 0.0000000000000000e+00  3.1900920624245223e-06 2.1159468636674554e-10 0.0000000000000000e+00  3.1799983782965762e-06 8.7688364960983876e-10 0.0000000000000000e+00  3.1874283190289911e-06 5.6968663347759872e-10 0.0000000000000000e+00  3.1737600386886358e-06 2.3263036106247354e-10 0.0000000000000000e+00  3.1910890092404566e-06 -3.0627700848476238e-09 0.0000000000000000e+00  3.1815681354116401e-06 1.8666451065373565e-09 0.0000000000000000e+00  3.1786282164421192e-06 -1.1752168889698022e-09 0.0000000000000000e+00  3.1859433752401150e-06 1.3049438845303941e-09 0.0000000000000000e+00  3.1904441000431325e-06 3.9782983306741650e-09 0.0000000000000000e+00  3.1689408360451051e-06 -3.6893432313963736e-09 0.0000000000000000e+00  3.1686670697265913e-06 3.4516050443881411e-09 0.0000000000000000e+00  3.1738652219257564e-06 -4.9249840430339888e-10 0.0000000000000000e+00  3.1673233956152051e-06 -2.3103145015379354e-09 0.0000000000000000e+00  3.1754026528644306e-06 -1.9417143406885065e-09 0.0000000000000000e+00  3.1908917740980663e-06 -8.6864768307244286e-10 0.0000000000000000e+00  3.1927234241733561e-06 -5.8965195487461963e-10 0.0000000000000000e+00  3.1941244467932968e-06 7.4920686200872634e-10 0.0000000000000000e+00  3.1786407321467852e-06 -3.0108243663809529e-09 0.0000000000000000e+00  2.9255029621634775e-06 -1.7973415500502488e-07 0.0000000000000000e+00  3.2679003560604342e-06 -9.7085466141345310e-08 0.0000000000000000e+00  3.1720615595781886e-06 -3.1190446162621657e-08 0.0000000000000000e+00  3.1920429979297213e-06 -9.7355220868191678e-10 0.0000000000000000e+00  3.1937425662077637e-06 -2.1435519580128902e-09 0.0000000000000000e+00  3.1938252497870247e-06 -5.0600388172878114e-10 0.0000000000000000e+00  1.9717922233123769e-21 -7.9630070556845979e-21 0.0000000000000000e+00  3.0402483623596178e-21 6.6006703454461001e-21 0.0000000000000000e+00  3.1921201888338818e-06 1.5368611345153828e-09 0.0000000000000000e+00  3.1914299812294992e-06 -5.1079418143527613e-09 0.0000000000000000e+00  3.1943178927600267e-06 6.2151608941916659e-10 0.0000000000000000e+00  3.1696412780643941e-06 1.4155159071359641e-09 0.0000000000000000e+00  3.1757917191494775e-06 1.7101286808163262e-09 0.0000000000000000e+00  3.1932336362195071e-06 -4.2923133196827990e-08 0.0000000000000000e+00  3.1527371248250155e-06 -1.9815244510884938e-07 0.0000000000000000e+00  3.1106339912646178e-06 3.4055719996563702e-09 0.0000000000000000e+00  3.1714120983115030e-06 2.7672959418897639e-09 0.0000000000000000e+00  3.1721919698060000e-06 -2.7297313832486544e-10 0.0000000000000000e+00  3.0486161400334282e-06 1.3031433871594460e-09 0.0000000000000000e+00  3.1807701356215916e-06 4.1757493708209485e-08 0.0000000000000000e+00  3.1913435368558275e-06 -4.4491899874753884e-10 0.0000000000000000e+00  3.1599594422290647e-06 3.7491211435711026e-09 0.0000000000000000e+00  2.4498116812514101e-08 -3.7586779120553566e-06 0.0000000000000000e+00  3.1918897420718213e-06 1.9723202504936326e-09 0.0000000000000000e+00  3.5663979558219883e-08 3.2529862173101334e-06 0.0000000000000000e+00  -1.3262063804962260e-19 -1.3433731417558632e-19 0.0000000000000000e+00  -2.6947269858005300e-21 1.8834723353384755e-20 0.0000000000000000e+00  1.3640150143101455e-21 2.2091224785660708e-20 0.0000000000000000e+00  1.2158337793597441e-21 -2.2133591104461601e-20 0.0000000000000000e+00  -2.6629686470948734e-21 -2.3070401547514611e-20 0.0000000000000000e+00  -1.5738553045367639e-19 1.1586696861700463e-19 0.0000000000000000e+00  3.1812725890837795e-06 -2.2093424262722779e-09 0.0000000000000000e+00  3.0683148676445118e-06 -2.1995853271512933e-09 0.0000000000000000e+00  3.0687530436377275e-06 -7.3886965126255431e-09 0.0000000000000000e+00  3.0654064697441282e-06 1.0804193164152308e-09 0.0000000000000000e+00  3.0669767511285784e-06 -4.2151215246025428e-10 0.0000000000000000e+00  3.0643864258623605e-06 3.3750068949502131e-09 0.0000000000000000e+00  3.1648170491017516e-06 4.1912128748104736e-09 0.0000000000000000e+00  3.1784837125748583e-06 4.6260823997733164e-08 0.0000000000000000e+00  3.1658322059138618e-06 -5.5264870146843330e-10 0.0000000000000000e+00  3.1879106812268330e-06 -1.8283561751214811e-09 0.0000000000000000e+00  3.1926025821586675e-06 8.9784134672954219e-10 0.0000000000000000e+00  3.1936376955899481e-06 -7.0282362771680801e-10 0.0000000000000000e+00  -5.7963603994921244e-07 4.7191432043086206e-06 0.0000000000000000e+00  -1.1842467227599676e-06 -4.9167267408179220e-06 0.0000000000000000e+00  3.0743412580889616e-06 -1.0464415221533465e-08 0.0000000000000000e+00  3.1593599817279915e-06 3.9506664613351484e-09 0.0000000000000000e+00  3.1939931054011926e-06 -6.4133360609755114e-10 0.0000000000000000e+00  3.1933061893679590e-06 -7.2920093530870096e-10 0.0000000000000000e+00  2.2228605306072512e-20 2.5545844121622768e-22 0.0000000000000000e+00  2.8244074539105963e-06 2.0522348282948013e-07 0.0000000000000000e+00  1.3128731124721158e-05 1.5375809884556504e-05 0.0000000000000000e+00  1.3338009262480457e-05 -1.6404327127117526e-05 0.0000000000000000e+00  3.1951757909284036e-06 -5.1348689528479392e-10 0.0000000000000000e+00  3.0424207977989425e-06 3.0657942441898434e-09 0.0000000000000000e+00  2.2117383345564071e-20 6.1672818613851078e-23 0.0000000000000000e+00  3.0561879016703674e-06 -4.9155359970847807e-09 0.0000000000000000e+00  3.1952055026405900e-06 5.6371732798884382e-10 0.0000000000000000e+00  3.1515976589042723e-06 2.5363761677191846e-07 0.0000000000000000e+00  3.1897190675748664e-06 1.3065558322045974e-10 0.0000000000000000e+00  2.3887159033101536e-20 -2.2147401644862807e-22 0.0000000000000000e+00  3.1935111381040673e-06 1.2822884187541576e-09 0.0000000000000000e+00  3.1922854473574608e-06 -1.4235590406365193e-09 0.0000000000000000e+00  3.1660028462648052e-06 -1.0796961168936959e-09 0.0000000000000000e+00  3.1745697954621605e-06 6.0527522295745711e-10 0.0000000000000000e+00  3.1667139823032062e-06 -2.4012989379793142e-09 0.0000000000000000e+00  2.3437229508146038e-20 1.8676726893341645e-22 0.0000000000000000e+00  3.1764338636873104e-06 -9.2370273079551850e-10 0.0000000000000000e+00  3.1938430862646953e-06 2.5427298402325507e-09 0.0000000000000000e+00  3.0723553042690749e-06 7.2098278314010725e-09 0.0000000000000000e+00  3.1933383007990693e-06 -1.3810853226683816e-10 0.0000000000000000e+00  3.1938009970510252e-06 -1.5836928479527604e-08 0.0000000000000000e+00  3.1909563937107247e-06 4.4109533410130043e-10 0.0000000000000000e+00  3.1913636505407125e-06 -7.5005017558066710e-10 0.0000000000000000e+00  3.0801761178999296e-06 -4.8253321187472672e-08 0.0000000000000000e+00  3.1743362575840728e-06 1.9361389819971659e-09 0.0000000000000000e+00  3.1730911377249345e-06 -2.8401773926241591e-09 0.0000000000000000e+00  3.1699194490782608e-06 -2.0535311539630662e-09 0.0000000000000000e+00  3.1754566675248737e-06 -5.1744456446502006e-09 0.0000000000000000e+00  3.1907455415458078e-06 9.8559707114974834e-10 0.0000000000000000e+00  2.3142532897919529e-20 -2.7334665446165548e-22 0.0000000000000000e+00  2.9545080255334161e-06 -1.7089459460626737e-06 0.0000000000000000e+00  1.7448849437648211e-06 -3.2168976075772093e-06 0.0000000000000000e+00  7.4398061994755764e-07 -2.4181107858668834e-06 0.0000000000000000e+00  2.2832923960588956e-06 -8.1855716406454415e-07 0.0000000000000000e+00  3.1943178173886270e-06 1.6663033958691607e-10 0.0000000000000000e+00  3.1917011962945985e-06 -1.6842924213329838e-09 0.0000000000000000e+00  3.1913063715092080e-06 2.7118221132525771e-10 0.0000000000000000e+00  3.1912347842408305e-06 -6.1033170671340646e-10 0.0000000000000000e+00  3.1870191525267996e-06 -6.8555844864832230e-09 0.0000000000000000e+00  3.1725278769988882e-06 7.0682068218000544e-09 0.0000000000000000e+00  2.5172142011664398e-20 4.8064817888686264e-23 0.0000000000000000e+00  3.1702533427926559e-06 4.4255546014493508e-09 0.0000000000000000e+00  3.1913436684322323e-06 -9.4529068156124621e-10 0.0000000000000000e+00  3.1912511775081068e-06 1.4676718894034167e-11 0.0000000000000000e+00  3.1695156407984017e-06 2.8447199289385833e-09 0.000000