<?xml version="1.0"?>
<VTKFile type="UnstructuredGrid"  version="0.1"  >
<UnstructuredGrid>
<Piece  NumberOfPoints="1079" NumberOfCells="1944">
<Points>
<DataArray  type="Float64"  NumberOfComponents="3"  format="ascii">0.08500000000000001 0.02 0  0.005 0.02 0  0.005 0.03 0  0 0.03 0  0 0 0  0.005 0 0  0.005 0.01 0  0.08500000000000001 0.01 0  0 0.015 0  0 0.0075 0  0 0.0225 0  0.04500000000000001 0.02 0  0.04500000000000001 0.01 0  0.025 0.01 0  0.025 0.02 0  0.065 0.02 0  0.065 0.01 0  0.035 0.02 0  0.035 0.01 0  0.07500000000000001 0.02 0  0.07500000000000001 0.01 0  0.015 0.02 0  0.015 0.01 0  0.05500000000000001 0.01 0  0.05500000000000001 0.02 0  0.07000000000000001 0.01 0  0.07000000000000001 0.02 0  0.05 0.01 0  0.03 0.01 0  0.03 0.02 0  0.04000000000000001 0.01 0  0.01 0.01 0  0.02 0.02 0  0.06 0.015 0  0.08500000000000001 0.015 0  0.05 0.02 0  0.07250000000000001 0.015 0  0.04000000000000001 0.02 0  0.03750000000000001 0.015 0  0.0525 0.015 0  0.02 0.01 0  0.01 0.02 0  0.0275 0.015 0  0.0125 0.015 0  0.08000000000000002 0.01 0  0.08000000000000002 0.02 0  0.0325 0.014375 0  0.04291666666666667 0.015 0  0.065 0.015 0  0.005 0.005 0  0.005 0.015 0  0.02208333333333334 0.015 0  0.07791666666666668 0.015 0  0.005 0.025 0  0.06 0.01 0  0.06 0.02 0  0.01729166666666667 0.01572916666666667 0  0.04770833333333334 0.01427083333333334 0  0.06875000000000001 0.01625 0  0.008750000000000001 0.01625 0  0.05625000000000001 0.01625 0  0 0.00375 0  0 0.01875 0  0 0.01125 0  0 0.02625 0  0.08145833333333334 0.01354166666666667 0  0.0675 0.01 0  0.0075 0.0125 0  0.0625 0.0175 0  0.0575 0.0125 0  0.0625 0.0125 0  0.08207465277777778 0.01707465277777778 0  0.06767857142857144 0.01321428571428571 0  0.0175 0.01 0  0.01875 0.01291382575757576 0  0.0475 0.02 0  0.04564168086314595 0.01679860519591141 0  0.00296875 0.0125 0  0.0025 0.03 0  0.0025 0 0  0.00296875 0.0175 0  0.01521990740740741 0.0132349537037037 0  0.0497800925925926 0.0167650462962963 0  0.0325 0.02 0  0.03474264705882353 0.01674632352941176 0  0.03750000000000001 0.02 0  0.03025735294117647 0.01674632352941176 0  0.0275 0.02 0  0.0525 0.02 0  0.0125 0.01 0  0.04020833333333334 0.01322916666666667 0  0.03750000000000001 0.01 0  0.0225 0.02 0  0.02479166666666667 0.01677083333333333 0  0.07520833333333335 0.01322916666666667 0  0.07250000000000001 0.01 0  0.07520833333333335 0.01677083333333334 0  0.07250000000000001 0.02 0  0.04020833333333334 0.01677083333333333 0  0.0225 0.01 0  0.02375 0.01262152777777778 0  0.04250000000000001 0.02 0  0.04250000000000001 0.01 0  0.07750000000000001 0.01 0  0.07750000000000001 0.02 0  0.05036151960784314 0.01294424019607843 0  0.0705560064935065 0.01284699675324675 0  0.05458333333333334 0.01291666666666666 0  0.0021875 0.024375 0  0.005 0.0275 0  0.01125 0.0175 0  0.01463848039215686 0.01705575980392157 0  0.01 0.01375 0  0.03625 0.0125 0  0.0021875 0.009375 0  0.05375000000000001 0.0175 0  0.07125000000000001 0.0175 0  0.005 0.0025 0  0.0021875 0.005625 0  0.02655220103578155 0.01234889948210923 0  0.002187499999999999 0.020625 0  0.02979166666666667 0.01302083333333333 0  0.0525 0.01 0  0.07895833333333334 0.0125 0  0.01994277885235332 0.01704213007736944 0  0.07934656179076068 0.01733823814273861 0  0.04505722114764669 0.01295786992263056 0  0.06625 0.0175 0  0.006250000000000001 0.0175 0  0.05750000000000001 0.02 0  0.05875000000000001 0.0175 0  0.005 0.0225 0  0.005 0.0075 0  0.002375 0.027375 0  0.002375 0.002625000000000001 0  0.0475 0.01 0  0.0175 0.02 0  0.0325 0.01 0  0.03375 0.0121875 0  0.04261299435028249 0.01749205508474576 0  0.08500000000000001 0.0125 0  0.08250000000000002 0.01 0  0.02121963399965531 0.01224824108143494 0  0.0675 0.02 0  0.0125 0.02 0  0.02720152243589744 0.0175 0  0.03715165441176471 0.0175 0  0.08500000000000001 0.0175 0  0.0275 0.01 0  0.0025 0.0149560546875 0  0.0075 0.01 0  0.0075 0.02 0  0.06526785714285716 0.0125 0  0.01281031447005516 0.0125 0  0.0625 0.015 0  0.06 0.0125 0  0.05750000000000001 0.01 0  0.0625 0.02 0  0.0625 0.01 0  0.08250000000000002 0.02 0  0.04260103740101855 0.01252623201412851 0  0.02240052247582197 0.01750164767101344 0  0.07293583459427785 0.01238479732953041 0  0.005234374999999999 0.012265625 0  0.03528131980640358 0.01454684009679821 0  0.0325 0.01760027210036557 0  0.02532593822924343 0.01428227733767297 0  0.08009952069819683 0.01527145502895417 0  0.01987282359856536 0.01482587683689801 0  0.04828232595121382 0.01210233572595705 0  0.01671767404878618 0.01789766427404295 0  0.05125 0.01829007549029352 0  0.05247215456215357 0.01288882122882024 0  0.07338729919678716 0.01799385040160642 0  0.03838729919678716 0.01200614959839357 0  0.07717482110586968 0.01780301674207099 0  0.04771860040890012 0.01773306039388322 0  0.03125 0.01160380747126437 0  0.06875000000000001 0.01154265873015873 0  0.07625000000000001 0.01154065860215054 0  0.01625 0.01153997817696946 0  0.068125 0.018125 0  0.05437500000000001 0.015625 0  0.066875 0.015625 0  0.07039794950204951 0.01494384850614853 0  0.05687500000000001 0.018125 0  0.006875 0.015625 0  0.008749999999999999 0.01833333333333333 0  0.010625 0.015625 0  0.05625 0.01416666666666667 0  0.05812500000000001 0.015625 0  0.0449088595298192 0.01494528408816316 0  0 0.016875 0  0 0.013125 0  0.04962452342047931 0.01478673066448802 0  0.0153754765795207 0.01521326933551198 0  0.0771774565913315 0.01322498191305479 0  0.01857756431135545 0.01840228599899994 0  0.04642243568864456 0.01159771400100006 0  0.08125000000000002 0.01155637254901961 0  0.08317650804863432 0.0118234919513657 0  0.08288217288011697 0.01511353252923977 0  0.02837253504384828 0.0117177464035174 0  0.03896057962520807 0.01831163685754031 0  0.01125 0.0114244162490927 0  0.00935910490099115 0.0119067901980177 0  0.02946078431372549 0.01495404411764706 0  0.02875 0.0185829434466942 0  0.002968749999999999 0.0225 0  0.064375 0.016875 0  0.00296875 0.0075 0  0 0.001875 0  0 0.005625 0  0 0.009375 0  0 0.020625 0  0 0.024375 0  0 0.028125 0  0.06062500000000001 0.01812500000000001 0  0.008303571428571429 0.01446428571428572 0  0.01375 0.01865917058160413 0  0.05137790313978056 0.01143372888932909 0  0.04125000000000001 0.01131513063942604 0  0.04101690263896279 0.01844430285842771 0  0.02399563533148224 0.01844349395710867 0  0.08125000000000002 0.01868815426145731 0  0.05354684380692146 0.01145463537600848 0  0.01699195823639423 0.01315138909884649 0  0.07598357371794873 0.015 0  0.04098357371794872 0.015 0  0.003744047619047619 0.00375 0  0.003344630281690141 0.02580853873239437 0  0.04625 0.0187354532243972 0  0.06388392857142858 0.01138392857142858 0  0.06375 0.01375 0  0.05875 0.01375 0  0.06375 0.02 0  0.00622802734375 0.01372802734375 0  0.003630681818181818 0.001369318181818182 0  0.003630681818181818 0.02863068181818182 0  0.06125 0.01625 0  0.06125 0.01125 0  0.05625000000000001 0.01 0  0.05875 0.01125 0  0.06125 0.01375 0  0.08337864763241221 0.0183786476324122 0  0.05213634138653413 0.01674432930673294 0  0.04375000000000001 0.01 0  0.07424178685897437 0.01529258578431373 0  0.03924178685897436 0.01529258578431372 0  0.03410139294454583 0.01843406022904556 0  0.03089860705545417 0.01843406022904556 0  0.02094160484316717 0.01850229584291991 0  0.04375000000000001 0.02 0  0.04437042160883325 0.01820701498672512 0  0.04816311705429156 0.01600061344661149 0  0.07151224904251052 0.0114127410511319 0  0.04395528506193162 0.01639387970349481 0  0.0128750358694518 0.0167500179347259 0  0.02855808448399799 0.01642839899839741 0  0.02812690373330794 0.01340955081400569 0  0.08358500641945087 0.01351822349116885 0  0.05590277777777778 0.01173611111111111 0  0.06683110430364615 0.01164926404662283 0  0.02573206694914602 0.01842532451809762 0  0.01438126661842046 0.01166701193099454 0  0.02384283211216029 0.01526549696571563 0  0.03625 0.02 0  0.004609375000000001 0.0182421875 0  0.003398437500000001 0.01943359375 0  0.001728307845744682 0.01894718251329787 0  0.004377805359085963 0.01656966216675735 0  0.04649673309852075 0.0153889662370871 0  0.03615513600614297 0.01592654988586041 0  0.03316985071935832 0.01598763605018279 0  0.03110111603888768 0.01529816275177977 0  0.01370614113484869 0.0138804542047638 0  0.04930041102671841 0.01842260568883502 0  0.07875000000000001 0.02 0  0.0745395359848485 0.01165101111925709 0  0.03860755698543604 0.01373741558556884 0  0.02605038706571737 0.01573944002207753 0  0.07559826163500957 0.01841729376139847 0  0.04437500000000001 0.01149157931286774 0  0.06874116707361365 0.01454618473032123 0  0.003761917372881356 0.0239307468220339 0  0.003984374999999999 0.01125 0  0.003768503289473684 0.01392539576480263 0  0.001796875 0.0111328125 0  0.003761917372881356 0.008930746822033899 0  0.005 0.00625 0  0.003761917372881355 0.0210692531779661 0  0.06633928571428571 0.01410714285714285 0  0.006484375 0.01125 0  0.08364120589325512 0.01657288979763549 0  0.03576267476503373 0.0184116442851204 0  0.07370875846579374 0.0137848203678562 0  0.06964285714285715 0.01758928571428571 0  0.05520833333333334 0.01833333333333333 0  0.06491071428571429 0.01839285714285714 0  0.0510098951944636 0.01559941474766356 0  0.01786087179886325 0.0115702210443714 0  0.01972197383235524 0.01160576093166696 0  0.01804697593127788 0.01433503795474974 0  0.001644074528704677 0.01642892723865279 0  0.00125 0.03 0  0.001497685185185185 0.001267746913580247 0  0.07315451164202422 0.01643443118912983 0  0.001233906745910645 0.0140625 0  0.01162635071030191 0.01362229857939618 0  0.01528023503083844 0.01845923557506155 0  0.06625 0.02 0  0.07695012019230771 0.01624387078484555 0  0.03139091092855769 0.01320776147621796 0  0.03857339107781042 0.01675295051810485 0  0.001754993120977522 0.02590789105493891 0  0.002288757784711197 0.00412546923654445 0  0.07914382119690884 0.01404430049871201 0  0.001391810103286306 0.01257390899021902 0  0.0419501201923077 0.01614675005432421 0  0.001484375 0.007018229166666667 0  0.001484375 0.02201822916666666 0  0.048
[...]
<PointData  Vectors="velocity"> 
<DataArray  type="Float64"  Name="velocity"  NumberOfComponents="3" format="ascii">7.9503350448317258e-06 5.7830314649662831e-20 0.0000000000000000e+00  1.7362829531831978e-19 -1.8812715296861247e-19 0.0000000000000000e+00  6.8242400535624968e-18 -3.7649358067924957e-04 0.0000000000000000e+00  -8.4372422480409100e-18 -3.7649358067924898e-04 0.0000000000000000e+00  -7.9409338805090996e-18 3.7649358067924903e-04 0.0000000000000000e+00  7.1964713292113731e-18 3.7649358067924881e-04 0.0000000000000000e+00  1.6091368378963311e-19 1.4950021123484746e-19 0.0000000000000000e+00  8.1647928791055736e-06 -6.0953138569049402e-20 0.0000000000000000e+00  1.7375606725797263e-20 -7.8291251235423709e-22 0.0000000000000000e+00  -1.9719109034513156e-21 1.4859338024567949e-19 0.0000000000000000e+00  9.4347023897558352e-22 -1.6976135259350823e-19 0.0000000000000000e+00  1.4796666163429799e-19 -5.6226281098884055e-22 0.0000000000000000e+00  1.2541748281685535e-19 7.8226054024896198e-22 0.0000000000000000e+00  1.5205093635776802e-19 4.4970422025455941e-22 0.0000000000000000e+00  1.3263971935649750e-19 -5.0424838844847461e-22 0.0000000000000000e+00  1.3961442530876749e-19 4.7966175863799075e-22 0.0000000000000000e+00  1.4325028456901513e-19 1.8610546415682150e-22 0.0000000000000000e+00  1.1899246095493919e-19 -2.6829933249691052e-22 0.0000000000000000e+00  1.6417130289711491e-19 -2.0783748819178726e-22 0.0000000000000000e+00  1.4841377851531796e-19 9.3780317474595124e-22 0.0000000000000000e+00  1.3416854739563488e-19 5.5365016767759343e-22 0.0000000000000000e+00  1.2341861207806602e-19 -3.0448670742943918e-22 0.0000000000000000e+00  1.2246886723801073e-19 -3.2375337475510232e-22 0.0000000000000000e+00  1.4512702598949990e-19 -1.6810660146807253e-21 0.0000000000000000e+00  1.3852314833437519e-19 5.9826112797803545e-22 0.0000000000000000e+00  1.3464210366192220e-19 2.1083168845229601e-22 0.0000000000000000e+00  1.5956421395919514e-19 -5.8946332309144584e-22 0.0000000000000000e+00  1.3652213746329552e-19 4.7541294420429823e-22 0.0000000000000000e+00  1.5019038576948708e-19 1.0173662330844952e-22 0.0000000000000000e+00  1.2045669977544802e-19 -2.5781518444818572e-22 0.0000000000000000e+00  1.3561620292132931e-19 4.7641569586665972e-22 0.0000000000000000e+00  1.4811713080309715e-19 8.4329350921902231e-22 0.0000000000000000e+00  1.2410522417034280e-19 -2.7195313985498137e-22 0.0000000000000000e+00  2.0264916290875482e-05 -2.9586498146850886e-09 0.0000000000000000e+00  1.9462203463001768e-05 6.4310317814401040e-23 0.0000000000000000e+00  1.2413542985917933e-19 8.9197126544959474e-23 0.0000000000000000e+00  2.0264540087679052e-05 6.8319006022669498e-09 0.0000000000000000e+00  1.4955926629846179e-19 -1.4252299587164542e-21 0.0000000000000000e+00  2.0247674144041034e-05 -9.8552571433665372e-09 0.0000000000000000e+00  2.0243805239179273e-05 -1.1048849976977783e-09 0.0000000000000000e+00  1.3512187174402184e-19 6.5215131646741109e-23 0.0000000000000000e+00  1.5069170458820611e-19 -2.8076553717734742e-21 0.0000000000000000e+00  2.0246416743921387e-05 -5.0521413901220913e-10 0.0000000000000000e+00  2.0204190595900944e-05 -7.5095316232033896e-08 0.0000000000000000e+00  1.2407072114847127e-19 -5.2734672214333493e-22 0.0000000000000000e+00  1.4688180195232383e-19 2.6048445617312274e-21 0.0000000000000000e+00  2.0241733226499554e-05 5.9839670129945122e-10 0.0000000000000000e+00  2.0262254072454167e-05 -1.9745309856916962e-09 0.0000000000000000e+00  2.0256782261194467e-05 -1.7050440821040372e-09 0.0000000000000000e+00  -1.0051599944897997e-20 1.8072975742509667e-19 0.0000000000000000e+00  1.5307969382050740e-05 -7.6726610915293194e-07 0.0000000000000000e+00  2.0238554213026025e-05 5.0902141708596091e-09 0.0000000000000000e+00  2.0233247596866367e-05 1.0417566672328573e-09 0.0000000000000000e+00  -1.5603999779543278e-20 -2.1115451948619785e-19 0.0000000000000000e+00  1.2989320556496881e-19 2.4612460242895794e-22 0.0000000000000000e+00  1.4839122345197330e-19 1.8502321739431146e-21 0.0000000000000000e+00  2.0247906465976263e-05 -6.5222805430861561e-09 0.0000000000000000e+00  2.0254549585963706e-05 5.3567628294373522e-09 0.0000000000000000e+00  2.0256939957134050e-05 -5.1651827861796208e-09 0.0000000000000000e+00  1.9941162405076076e-05 -6.3347647435527743e-07 0.0000000000000000e+00  2.0242542226886946e-05 -1.5233895754904183e-08 0.0000000000000000e+00  -8.7672246730510142e-20 3.1131545242549855e-20 0.0000000000000000e+00  7.8694487727992072e-21 -8.1956731946534289e-20 0.0000000000000000e+00  1.0943218603397642e-20 8.8121707701044176e-20 0.0000000000000000e+00  -1.0067822748314480e-19 2.3596459566362064e-20 0.0000000000000000e+00  2.0047169408301802e-05 -1.9377283823066395e-07 0.0000000000000000e+00  1.2368416827659807e-19 -3.7144158320760017e-22 0.0000000000000000e+00  1.9977877767891042e-05 1.1626711624937653e-06 0.0000000000000000e+00  2.0219218420665998e-05 6.0751385700579264e-10 0.0000000000000000e+00  2.0228270660874379e-05 1.6941502252750653e-09 0.0000000000000000e+00  2.0246381905922775e-05 -8.7113478950857674e-09 0.0000000000000000e+00  2.0025295651936173e-05 3.7047663296644763e-07 0.0000000000000000e+00  2.0244141441021240e-05 -4.1004547619671897e-09 0.0000000000000000e+00  1.3742702616982668e-19 -3.7868895674590817e-23 0.0000000000000000e+00  2.0228134615591139e-05 -2.5738241883871768e-11 0.0000000000000000e+00  1.6478411980235841e-19 2.4514924737884107e-21 0.0000000000000000e+00  2.0262225483733021e-05 -1.5428292438581955e-08 0.0000000000000000e+00  9.6962457635101049e-06 7.9487878975564029e-06 0.0000000000000000e+00  -4.4487341334497470e-19 -3.7649358067925082e-04 0.0000000000000000e+00  -6.4979639582069576e-19 3.7649358067925098e-04 0.0000000000000000e+00  1.0019708191325944e-05 -9.8159799395651775e-06 0.0000000000000000e+00  2.0220791580548369e-05 -2.7260981354461731e-08 0.0000000000000000e+00  2.0237610165352054e-05 1.8183656439423768e-08 0.0000000000000000e+00  1.3955508085791239e-19 1.2564431666689313e-21 0.0000000000000000e+00  2.0235881529925996e-05 -6.2481601836984710e-09 0.0000000000000000e+00  1.4197898842369457e-19 8.9790492132990844e-22 0.0000000000000000e+00  2.0239788519929392e-05 -6.4254800447781300e-09 0.0000000000000000e+00  1.4795675882953638e-19 3.0826945006602125e-22 0.0000000000000000e+00  1.3591595376406968e-19 -1.6642696900452330e-23 0.0000000000000000e+00  1.5359816910622646e-19 7.7172929854823884e-22 0.0000000000000000e+00  2.0246321006247915e-05 6.2660818257822917e-09 0.0000000000000000e+00  1.3987606163451942e-19 4.7197787871558366e-22 0.0000000000000000e+00  1.4203226244543311e-19 3.9911972031333729e-22 0.0000000000000000e+00  2.0233533710631975e-05 1.5926290815003017e-09 0.0000000000000000e+00  2.0253266690756773e-05 3.2317514943923141e-09 0.0000000000000000e+00  1.4817201908375341e-19 7.7374122246107807e-23 0.0000000000000000e+00  2.0249401089310252e-05 1.3892034683895226e-08 0.0000000000000000e+00  1.5183769496992982e-19 1.6569206378534780e-21 0.0000000000000000e+00  2.0258756973853542e-05 -2.5725394092097075e-08 0.0000000000000000e+00  1.2563209029832467e-19 3.2873229369328379e-23 0.0000000000000000e+00  2.0216147905253675e-05 1.3675472144269593e-08 0.0000000000000000e+00  1.4723833052113880e-19 1.1737749563228539e-23 0.0000000000000000e+00  1.4272877146719862e-19 1.3373009080600144e-21 0.0000000000000000e+00  1.4693395788830888e-19 2.4173882135816095e-21 0.0000000000000000e+00  1.5708698250971455e-19 -9.8919941168226763e-22 0.0000000000000000e+00  2.0250648180430900e-05 1.5331809604009242e-08 0.0000000000000000e+00  2.0255396774585025e-05 2.3944336906508891e-08 0.0000000000000000e+00  2.0249481970964629e-05 2.5096311322393181e-09 0.0000000000000000e+00  -4.1292832160684628e-06 -2.2211772012842463e-05 0.0000000000000000e+00  2.8808432454261985e-20 -3.0533402017447395e-19 0.0000000000000000e+00  2.0317890066278949e-05 -1.6817135777698142e-07 0.0000000000000000e+00  2.0277343195432088e-05 -5.5269320886135389e-08 0.0000000000000000e+00  2.0012500787515786e-05 5.6725702561916858e-08 0.0000000000000000e+00  2.0201273677888256e-05 -2.1710921926185049e-08 0.0000000000000000e+00  3.4095137658814636e-06 1.8156418227871145e-05 0.0000000000000000e+00  2.0218819198675334e-05 -3.1566359922796512e-11 0.0000000000000000e+00  2.0261814559831280e-05 3.2789147056087566e-11 0.0000000000000000e+00  5.8264708956043329e-20 1.6533167496527207e-19 0.0000000000000000e+00  -3.6580189202162145e-06 1.9318771828532609e-05 0.0000000000000000e+00  2.0216029355689799e-05 -1.3876401164112276e-08 0.0000000000000000e+00  3.3856421791511476e-06 -2.0784401553389166e-05 0.0000000000000000e+00  2.0250884923679142e-05 -3.3366220881901582e-09 0.0000000000000000e+00  1.3073404349130069e-19 -1.1008765014756621e-21 0.0000000000000000e+00  2.0211672477939809e-05 -6.1829281711084005e-08 0.0000000000000000e+00  2.0230752043066206e-05 3.5916941592721988e-10 0.0000000000000000e+00  2.0222036747397775e-05 9.3407236371084452e-08 0.0000000000000000e+00  2.0255864638990195e-05 -4.4977469039032291e-09 0.0000000000000000e+00  2.0247112832052967e-05 -2.3927307075375912e-08 0.0000000000000000e+00  2.0196396454208243e-05 -3.7059396144741528e-06 0.0000000000000000e+00  1.4891312214698653e-19 -2.0434131497360824e-21 0.0000000000000000e+00  2.0210251366119351e-05 -7.1462175839554306e-09 0.0000000000000000e+00  2.0851823751995129e-21 -1.8326878118374791e-19 0.0000000000000000e+00  1.6138914220607235e-21 1.6090092047253857e-19 0.0000000000000000e+00  -4.5186675273864980e-05 -5.0510865647154600e-05 0.0000000000000000e+00  -3.6890741190666989e-05 4.1658949955742432e-05 0.0000000000000000e+00  1.3870492502563863e-19 4.1539235359240732e-23 0.0000000000000000e+00  1.5792924691786143e-19 2.2711672219100165e-21 0.0000000000000000e+00  1.3227009502757848e-19 2.6340577592243369e-22 0.0000000000000000e+00  2.0211239006966616e-05 2.4626129068156579e-08 0.0000000000000000e+00  2.0219677956128737e-05 1.4899724330814297e-08 0.0000000000000000e+00  1.8393544276920817e-05 -4.7794660780390901e-21 0.0000000000000000e+00  1.3722104004444446e-19 -4.6627734912871754e-21 0.0000000000000000e+00  2.0219479399424486e-05 5.7998628187319921e-09 0.0000000000000000e+00  1.5141673759098729e-19 9.7744506899609807e-22 0.0000000000000000e+00  1.3915431927471522e-19 -2.5452953984400413e-22 0.0000000000000000e+00  2.0239205702974633e-05 -2.5539289845886840e-09 0.0000000000000000e+00  2.0261229414426602e-05 2.1504142023474202e-09 0.0000000000000000e+00  1.8372555584989879e-05 6.2898540686308745e-21 0.0000000000000000e+00  1.4162402527905261e-19 -1.7949105470399630e-21 0.0000000000000000e+00  7.5299037583106425e-06 -6.9463854526780794e-07 0.0000000000000000e+00  1.4684530738107298e-19 4.7738423155134266e-21 0.0000000000000000e+00  1.8204506241575061e-19 -6.9663727821083030e-21 0.0000000000000000e+00  2.0240103941757348e-05 -9.0810661872309121e-09 0.0000000000000000e+00  2.0171855813840575e-05 -2.2339891655144074e-08 0.0000000000000000e+00  2.0266748600236750e-05 1.3783281305959200e-10 0.0000000000000000e+00  2.0228524380724359e-05 1.2732491430260316e-08 0.0000000000000000e+00  1.4293717837400079e-19 1.7457392425323185e-22 0.0000000000000000e+00  1.6211761920855667e-19 3.7788569416587264e-22 0.0000000000000000e+00  1.3858074009721890e-19 -2.6879499856079640e-21 0.0000000000000000e+00  1.3734031615892261e-19 2.5408510777631825e-21 0.0000000000000000e+00  2.0224689736927791e-05 -3.2797121531449580e-09 0.0000000000000000e+00  2.0227166507081907e-05 7.7690628726049876e-09 0.0000000000000000e+00  2.0222477419798364e-05 -6.7127466948611998e-09 0.0000000000000000e+00  1.8359451091553733e-05 5.4979368169438387e-06 0.0000000000000000e+00  2.0250648954450810e-05 -5.8226108879021166e-09 0.0000000000000000e+00  2.0217611130826469e-05 6.5744183214102789e-09 0.0000000000000000e+00  2.0245686968314272e-05 5.9838478773034200e-09 0.0000000000000000e+00  2.0132986562303761e-05 2.2644346186721391e-08 0.0000000000000000e+00  2.0236473505398239e-05 1.6757593427951206e-09 0.0000000000000000e+00  2.0172459744312027e-05 5.5462745913001192e-09 0.0000000000000000e+00  2.0218794324718599e-05 4.2167403408663186e-09 0.0000000000000000e+00  2.0132888851790866e-05 1.4913569446953929e-09 0.0000000000000000e+00  2.0242793691101960e-05 -1.9425852185115524e-08 0.0000000000000000e+00  2.0182422005092157e-05 1.1896591354822058e-08 0.0000000000000000e+00  2.0163766606094112e-05 -7.4681613506682896e-09 0.0000000000000000e+00  2.0210177807838323e-05 8.3270772798103581e-09 0.0000000000000000e+00  2.0238714088347916e-05 2.5290330858052190e-08 0.0000000000000000e+00  2.0102316362248218e-05 -2.3402767992952143e-08 0.0000000000000000e+00  2.0100520186248494e-05 2.1875281531181266e-08 0.0000000000000000e+00  2.0133508617626560e-05 -3.0926079509282566e-09 0.0000000000000000e+00  2.0093043711131508e-05 -1.4222345540652442e-08 0.0000000000000000e+00  2.0143310333126235e-05 -1.2285895834907298e-08 0.0000000000000000e+00  2.0241539338458783e-05 -5.5142148711444591e-09 0.0000000000000000e+00  2.0253158036609190e-05 -3.7427370409941767e-09 0.0000000000000000e+00  2.0262045066519161e-05 4.7555306648012272e-09 0.0000000000000000e+00  2.0163767415435499e-05 -1.9110867689998967e-08 0.0000000000000000e+00  1.8554456827089587e-05 -1.1168518328614300e-06 0.0000000000000000e+00  2.0717658993667034e-05 -6.0910019570261551e-07 0.0000000000000000e+00  2.0120754116032180e-05 -1.9067578837319804e-07 0.0000000000000000e+00  2.0248843336425409e-05 -6.1777319920546818e-09 0.0000000000000000e+00  2.0259626359108694e-05 -1.3597466673522203e-08 0.0000000000000000e+00  2.0260146709913304e-05 -3.2073041514754710e-09 0.0000000000000000e+00  1.2513296801790083e-20 -5.2024979430472708e-20 0.0000000000000000e+00  1.8402427877867621e-20 4.5359563990061186e-20 0.0000000000000000e+00  2.0249325467157283e-05 9.7475616594128446e-09 0.0000000000000000e+00  2.0244848165240937e-05 -3.0930659516314189e-08 0.0000000000000000e+00  2.0263255374199634e-05 3.9254515625175038e-09 0.0000000000000000e+00  2.0106244865509373e-05 9.1835619870551105e-09 0.0000000000000000e+00  2.0145772408787820e-05 1.0804483621963744e-08 0.0000000000000000e+00  2.0256380983826474e-05 -2.7245127727038362e-07 0.0000000000000000e+00  1.9999149609850570e-05 -1.2572130000582155e-06 0.0000000000000000e+00  1.9732072040953972e-05 2.1622537353865248e-08 0.0000000000000000e+00  2.0118041783865636e-05 1.7550031029588398e-08 0.0000000000000000e+00  2.0122930838923588e-05 -1.7637190407222797e-09 0.0000000000000000e+00  1.9344268978507365e-05 1.0131988645601083e-08 0.0000000000000000e+00  2.0187000374107007e-05 2.7041797918419439e-07 0.0000000000000000e+00  2.0244402550565423e-05 -2.8075722746280971e-09 0.0000000000000000e+00  2.0045332455975756e-05 2.3807032470559105e-08 0.0000000000000000e+00  1.8618099554547765e-07 -2.3749772153332758e-05 0.0000000000000000e+00  2.0247854872432545e-05 1.2519719314816900e-08 0.0000000000000000e+00  2.5215522536463307e-07 2.0709850865571523e-05 0.0000000000000000e+00  -8.3517148526111972e-19 -8.6587649225182510e-19 0.0000000000000000e+00  -1.6452017386992710e-20 1.2253916398587674e-19 0.0000000000000000e+00  8.2164147867700346e-21 1.4219793185242296e-19 0.0000000000000000e+00  7.0175640956334226e-21 -1.3540327244584502e-19 0.0000000000000000e+00  -1.6835157886024176e-20 -1.4548901876811017e-19 0.0000000000000000e+00  -8.5475465575261184e-19 7.4098046622629144e-19 0.0000000000000000e+00  2.0180522601451802e-05 -1.4010009179187162e-08 0.0000000000000000e+00  1.9466833124301578e-05 9.4606307807832110e-10 0.0000000000000000e+00  1.9464333169277820e-05 -4.5814304764174729e-08 0.0000000000000000e+00  1.9445555708060508e-05 6.5988820690186753e-09 0.0000000000000000e+00  1.9455498065390667e-05 -2.7701353696194125e-09 0.0000000000000000e+00  1.9438935637551318e-05 2.1657485114002061e-08 0.0000000000000000e+00  2.0076005191070344e-05 2.6621778023296523e-08 0.0000000000000000e+00  2.0162907197714812e-05 2.9353238824167628e-07 0.0000000000000000e+00  2.0082547945247222e-05 -3.4211705548405429e-09 0.0000000000000000e+00  2.0223121680746004e-05 -1.0877727483762576e-08 0.0000000000000000e+00  2.0252381955247448e-05 5.6927221276691973e-09 0.0000000000000000e+00  2.0258959455541608e-05 -4.4578832201461022e-09 0.0000000000000000e+00  -3.5296342366285761e-06 2.9748457562576048e-05 0.0000000000000000e+00  -7.2273367758123566e-06 -3.0881057014030939e-05 0.0000000000000000e+00  1.9501857071591522e-05 -6.6390840570790361e-08 0.0000000000000000e+00  2.0041468127252169e-05 2.5114438589674632e-08 0.0000000000000000e+00  2.0261207482005163e-05 -4.0685865300574725e-09 0.0000000000000000e+00  2.0256859983845130e-05 -4.6217546147473617e-09 0.0000000000000000e+00  1.4495076848950358e-19 1.7020658720291078e-21 0.0000000000000000e+00  1.7926421756371632e-05 1.3286930139231753e-06 0.0000000000000000e+00  8.2684335772663955e-05 9.6119300630648569e-05 0.0000000000000000e+00  8.3539380838275115e-05 -1.0224688001539780e-04 0.0000000000000000e+00  2.0268708079588523e-05 -3.2512053139928322e-09 0.0000000000000000e+00  1.9299345541130230e-05 1.9381434911314833e-08 0.0000000000000000e+00  1.3943335943497039e-19 4.4068993680250917e-22 0.0000000000000000e+00  1.9387069644054456e-05 -3.1337343913663852e-08 0.0000000000000000e+00  2.0268904846574065e-05 3.5741548969408868e-09 0.0000000000000000e+00  1.9992368261957232e-05 1.6088546464515424e-06 0.0000000000000000e+00  2.0234096508666269e-05 8.2485421707027297e-10 0.0000000000000000e+00  1.5759889673156807e-19 -1.3980949261879094e-21 0.0000000000000000e+00  2.0258149402201875e-05 8.1335195099489174e-09 0.0000000000000000e+00  2.0250380101568341e-05 -9.0292518752103402e-09 0.0000000000000000e+00  2.0083645168861603e-05 -6.8815178223477808e-09 0.0000000000000000e+00  2.0137992921686515e-05 3.8465775843406999e-09 0.0000000000000000e+00  2.0087944903801036e-05 -1.5109794104476645e-08 0.0000000000000000e+00  1.5007864113967640e-19 1.1643446246032871e-21 0.0000000000000000e+00  2.0149784006121213e-05 -5.8876569611708626e-09 0.0000000000000000e+00  2.0260254558442002e-05 1.6133582887256272e-08 0.0000000000000000e+00  1.9489630749376136e-05 4.5561290468352191e-08 0.0000000000000000e+00  2.0257058989684610e-05 -8.7338631846519880e-10 0.0000000000000000e+00  2.0258109490604136e-05 -9.7548168071198567e-08 0.0000000000000000e+00  2.0241939696338397e-05 2.8158068703677524e-09 0.0000000000000000e+00  2.0244537325615017e-05 -4.7453605875077129e-09 0.0000000000000000e+00  1.9538865386458234e-05 -3.0642815170626458e-07 0.0000000000000000e+00  2.0136551081904714e-05 1.2243183876209144e-08 0.0000000000000000e+00  2.0128588610074863e-05 -1.8063743594399276e-08 0.0000000000000000e+00  2.0108490611681484e-05 -1.2962727611751486e-08 0.0000000000000000e+00  2.0145338530513214e-05 -3.1872436337978027e-08 0.0000000000000000e+00  2.0240603407873685e-05 6.3384430386413585e-09 0.0000000000000000e+00  1.5125018110911475e-19 -1.7254752194193887e-21 0.0000000000000000e+00  1.8714397568711185e-05 -1.0795256070969085e-05 0.0000000000000000e+00  1.1048939868165967e-05 -2.0331073550759947e-05 0.0000000000000000e+00  4.7142062086200393e-06 -1.5274553295746086e-05 0.0000000000000000e+00  1.4473707643132487e-05 -5.1506445936422574e-06 0.0000000000000000e+00  2.0263270518195602e-05 1.0614244550455364e-09 0.0000000000000000e+00  2.0246674002996907e-05 -1.0685252303460630e-08 0.0000000000000000e+00  2.0244166541819406e-05 1.7234353518564573e-09 0.0000000000000000e+00  2.0243713460735430e-05 -3.8615400562845402e-09 0.0000000000000000e+00  2.0217935958987200e-05 -4.1087040593053607e-08 0.0000000000000000e+00  2.0124963184623154e-05 4.4811258867449154e-08 0.0000000000000000e+00  1.5441058358592858e-19 1.7592351645532227e-22 0.0000000000000000e+00  2.0110673621403451e-05 2.8036934421879675e-08 0.0000000000000000e+00  2.0244406072991823e-05 -5.9941185101127829e-09 0.0000000000000000e+00  2.0243806440540224e-05 1.3226880534634179e-10 0.0000000000000000e+00  2.0105943763713167e-05 1.8024390439374431e-08 0.000000000