<?xml version="1.0"?>
<VTKFile type="UnstructuredGrid"  version="0.1"  >
<UnstructuredGrid>
<Piece  NumberOfPoints="1079" NumberOfCells="1944">
<Points>
<DataArray  type="Float64"  NumberOfComponents="3"  format="ascii">0.08500000000000001 0.02 0  0.005 0.02 0  0.005 0.03 0  0 0.03 0  0 0 0  0.005 0 0  0.005 0.01 0  0.08500000000000001 0.01 0  0 0.015 0  0 0.0075 0  0 0.0225 0  0.04500000000000001 0.02 0  0.04500000000000001 0.01 0  0.025 0.01 0  0.025 0.02 0  0.065 0.02 0  0.065 0.01 0  0.035 0.02 0  0.035 0.01 0  0.07500000000000001 0.02 0  0.07500000000000001 0.01 0  0.015 0.02 0  0.015 0.01 0  0.05500000000000001 0.01 0  0.05500000000000001 0.02 0  0.07000000000000001 0.01 0  0.07000000000000001 0.02 0  0.05 0.01 0  0.03 0.01 0  0.03 0.02 0  0.04000000000000001 0.01 0  0.01 0.01 0  0.02 0.02 0  0.06 0.015 0  0.08500000000000001 0.015 0  0.05 0.02 0  0.07250000000000001 0.015 0  0.04000000000000001 0.02 0  0.03750000000000001 0.015 0  0.0525 0.015 0  0.02 0.01 0  0.01 0.02 0  0.0275 0.015 0  0.0125 0.015 0  0.08000000000000002 0.01 0  0.08000000000000002 0.02 0  0.0325 0.014375 0  0.04291666666666667 0.015 0  0.065 0.015 0  0.005 0.005 0  0.005 0.015 0  0.02208333333333334 0.015 0  0.07791666666666668 0.015 0  0.005 0.025 0  0.06 0.01 0  0.06 0.02 0  0.01729166666666667 0.01572916666666667 0  0.04770833333333334 0.01427083333333334 0  0.06875000000000001 0.01625 0  0.008750000000000001 0.01625 0  0.05625000000000001 0.01625 0  0 0.00375 0  0 0.01875 0  0 0.01125 0  0 0.02625 0  0.08145833333333334 0.01354166666666667 0  0.0675 0.01 0  0.0075 0.0125 0  0.0625 0.0175 0  0.0575 0.0125 0  0.0625 0.0125 0  0.08207465277777778 0.01707465277777778 0  0.06767857142857144 0.01321428571428571 0  0.0175 0.01 0  0.01875 0.01291382575757576 0  0.0475 0.02 0  0.04564168086314595 0.01679860519591141 0  0.00296875 0.0125 0  0.0025 0.03 0  0.0025 0 0  0.00296875 0.0175 0  0.01521990740740741 0.0132349537037037 0  0.0497800925925926 0.0167650462962963 0  0.0325 0.02 0  0.03474264705882353 0.01674632352941176 0  0.03750000000000001 0.02 0  0.03025735294117647 0.01674632352941176 0  0.0275 0.02 0  0.0525 0.02 0  0.0125 0.01 0  0.04020833333333334 0.01322916666666667 0  0.03750000000000001 0.01 0  0.0225 0.02 0  0.02479166666666667 0.01677083333333333 0  0.07520833333333335 0.01322916666666667 0  0.07250000000000001 0.01 0  0.07520833333333335 0.01677083333333334 0  0.07250000000000001 0.02 0  0.04020833333333334 0.01677083333333333 0  0.0225 0.01 0  0.02375 0.01262152777777778 0  0.04250000000000001 0.02 0  0.04250000000000001 0.01 0  0.07750000000000001 0.01 0  0.07750000000000001 0.02 0  0.05036151960784314 0.01294424019607843 0  0.0705560064935065 0.01284699675324675 0  0.05458333333333334 0.01291666666666666 0  0.0021875 0.024375 0  0.005 0.0275 0  0.01125 0.0175 0  0.01463848039215686 0.01705575980392157 0  0.01 0.01375 0  0.03625 0.0125 0  0.0021875 0.009375 0  0.05375000000000001 0.0175 0  0.07125000000000001 0.0175 0  0.005 0.0025 0  0.0021875 0.005625 0  0.02655220103578155 0.01234889948210923 0  0.002187499999999999 0.020625 0  0.02979166666666667 0.01302083333333333 0  0.0525 0.01 0  0.07895833333333334 0.0125 0  0.01994277885235332 0.01704213007736944 0  0.07934656179076068 0.01733823814273861 0  0.04505722114764669 0.01295786992263056 0  0.06625 0.0175 0  0.006250000000000001 0.0175 0  0.05750000000000001 0.02 0  0.05875000000000001 0.0175 0  0.005 0.0225 0  0.005 0.0075 0  0.002375 0.027375 0  0.002375 0.002625000000000001 0  0.0475 0.01 0  0.0175 0.02 0  0.0325 0.01 0  0.03375 0.0121875 0  0.04261299435028249 0.01749205508474576 0  0.08500000000000001 0.0125 0  0.08250000000000002 0.01 0  0.02121963399965531 0.01224824108143494 0  0.0675 0.02 0  0.0125 0.02 0  0.02720152243589744 0.0175 0  0.03715165441176471 0.0175 0  0.08500000000000001 0.0175 0  0.0275 0.01 0  0.0025 0.0149560546875 0  0.0075 0.01 0  0.0075 0.02 0  0.06526785714285716 0.0125 0  0.01281031447005516 0.0125 0  0.0625 0.015 0  0.06 0.0125 0  0.05750000000000001 0.01 0  0.0625 0.02 0  0.0625 0.01 0  0.08250000000000002 0.02 0  0.04260103740101855 0.01252623201412851 0  0.02240052247582197 0.01750164767101344 0  0.07293583459427785 0.01238479732953041 0  0.005234374999999999 0.012265625 0  0.03528131980640358 0.01454684009679821 0  0.0325 0.01760027210036557 0  0.02532593822924343 0.01428227733767297 0  0.08009952069819683 0.01527145502895417 0  0.01987282359856536 0.01482587683689801 0  0.04828232595121382 0.01210233572595705 0  0.01671767404878618 0.01789766427404295 0  0.05125 0.01829007549029352 0  0.05247215456215357 0.01288882122882024 0  0.07338729919678716 0.01799385040160642 0  0.03838729919678716 0.01200614959839357 0  0.07717482110586968 0.01780301674207099 0  0.04771860040890012 0.01773306039388322 0  0.03125 0.01160380747126437 0  0.06875000000000001 0.01154265873015873 0  0.07625000000000001 0.01154065860215054 0  0.01625 0.01153997817696946 0  0.068125 0.018125 0  0.05437500000000001 0.015625 0  0.066875 0.015625 0  0.07039794950204951 0.01494384850614853 0  0.05687500000000001 0.018125 0  0.006875 0.015625 0  0.008749999999999999 0.01833333333333333 0  0.010625 0.015625 0  0.05625 0.01416666666666667 0  0.05812500000000001 0.015625 0  0.0449088595298192 0.01494528408816316 0  0 0.016875 0  0 0.013125 0  0.04962452342047931 0.01478673066448802 0  0.0153754765795207 0.01521326933551198 0  0.0771774565913315 0.01322498191305479 0  0.01857756431135545 0.01840228599899994 0  0.04642243568864456 0.01159771400100006 0  0.08125000000000002 0.01155637254901961 0  0.08317650804863432 0.0118234919513657 0  0.08288217288011697 0.01511353252923977 0  0.02837253504384828 0.0117177464035174 0  0.03896057962520807 0.01831163685754031 0  0.01125 0.0114244162490927 0  0.00935910490099115 0.0119067901980177 0  0.02946078431372549 0.01495404411764706 0  0.02875 0.0185829434466942 0  0.002968749999999999 0.0225 0  0.064375 0.016875 0  0.00296875 0.0075 0  0 0.001875 0  0 0.005625 0  0 0.009375 0  0 0.020625 0  0 0.024375 0  0 0.028125 0  0.06062500000000001 0.01812500000000001 0  0.008303571428571429 0.01446428571428572 0  0.01375 0.01865917058160413 0  0.05137790313978056 0.01143372888932909 0  0.04125000000000001 0.01131513063942604 0  0.04101690263896279 0.01844430285842771 0  0.02399563533148224 0.01844349395710867 0  0.08125000000000002 0.01868815426145731 0  0.05354684380692146 0.01145463537600848 0  0.01699195823639423 0.01315138909884649 0  0.07598357371794873 0.015 0  0.04098357371794872 0.015 0  0.003744047619047619 0.00375 0  0.003344630281690141 0.02580853873239437 0  0.04625 0.0187354532243972 0  0.06388392857142858 0.01138392857142858 0  0.06375 0.01375 0  0.05875 0.01375 0  0.06375 0.02 0  0.00622802734375 0.01372802734375 0  0.003630681818181818 0.001369318181818182 0  0.003630681818181818 0.02863068181818182 0  0.06125 0.01625 0  0.06125 0.01125 0  0.05625000000000001 0.01 0  0.05875 0.01125 0  0.06125 0.01375 0  0.08337864763241221 0.0183786476324122 0  0.05213634138653413 0.01674432930673294 0  0.04375000000000001 0.01 0  0.07424178685897437 0.01529258578431373 0  0.03924178685897436 0.01529258578431372 0  0.03410139294454583 0.01843406022904556 0  0.03089860705545417 0.01843406022904556 0  0.02094160484316717 0.01850229584291991 0  0.04375000000000001 0.02 0  0.04437042160883325 0.01820701498672512 0  0.04816311705429156 0.01600061344661149 0  0.07151224904251052 0.0114127410511319 0  0.04395528506193162 0.01639387970349481 0  0.0128750358694518 0.0167500179347259 0  0.02855808448399799 0.01642839899839741 0  0.02812690373330794 0.01340955081400569 0  0.08358500641945087 0.01351822349116885 0  0.05590277777777778 0.01173611111111111 0  0.06683110430364615 0.01164926404662283 0  0.02573206694914602 0.01842532451809762 0  0.01438126661842046 0.01166701193099454 0  0.02384283211216029 0.01526549696571563 0  0.03625 0.02 0  0.004609375000000001 0.0182421875 0  0.003398437500000001 0.01943359375 0  0.001728307845744682 0.01894718251329787 0  0.004377805359085963 0.01656966216675735 0  0.04649673309852075 0.0153889662370871 0  0.03615513600614297 0.01592654988586041 0  0.03316985071935832 0.01598763605018279 0  0.03110111603888768 0.01529816275177977 0  0.01370614113484869 0.0138804542047638 0  0.04930041102671841 0.01842260568883502 0  0.07875000000000001 0.02 0  0.0745395359848485 0.01165101111925709 0  0.03860755698543604 0.01373741558556884 0  0.02605038706571737 0.01573944002207753 0  0.07559826163500957 0.01841729376139847 0  0.04437500000000001 0.01149157931286774 0  0.06874116707361365 0.01454618473032123 0  0.003761917372881356 0.0239307468220339 0  0.003984374999999999 0.01125 0  0.003768503289473684 0.01392539576480263 0  0.001796875 0.0111328125 0  0.003761917372881356 0.008930746822033899 0  0.005 0.00625 0  0.003761917372881355 0.0210692531779661 0  0.06633928571428571 0.01410714285714285 0  0.006484375 0.01125 0  0.08364120589325512 0.01657288979763549 0  0.03576267476503373 0.0184116442851204 0  0.07370875846579374 0.0137848203678562 0  0.06964285714285715 0.01758928571428571 0  0.05520833333333334 0.01833333333333333 0  0.06491071428571429 0.01839285714285714 0  0.0510098951944636 0.01559941474766356 0  0.01786087179886325 0.0115702210443714 0  0.01972197383235524 0.01160576093166696 0  0.01804697593127788 0.01433503795474974 0  0.001644074528704677 0.01642892723865279 0  0.00125 0.03 0  0.001497685185185185 0.001267746913580247 0  0.07315451164202422 0.01643443118912983 0  0.001233906745910645 0.0140625 0  0.01162635071030191 0.01362229857939618 0  0.01528023503083844 0.01845923557506155 0  0.06625 0.02 0  0.07695012019230771 0.01624387078484555 0  0.03139091092855769 0.01320776147621796 0  0.03857339107781042 0.01675295051810485 0  0.001754993120977522 0.02590789105493891 0  0.002288757784711197 0.00412546923654445 0  0.07914382119690884 0.01404430049871201 0  0.001391810103286306 0.01257390899021902 0  0.0419501201923077 0.01614675005432421 0  0.001484375 0.007018229166666667 0  0.001484375 0.02201822916666666 0  0.048
[...]
<PointData  Vectors="velocity"> 
<DataArray  type="Float64"  Name="velocity"  NumberOfComponents="3" format="ascii">3.0594005373098553e-06 2.2707383435884558e-20 0.0000000000000000e+00  6.3186379636460708e-20 -7.4373769798723578e-20 0.0000000000000000e+00  2.7296960214249986e-18 -1.4849682622544751e-04 0.0000000000000000e+00  -3.1226068123876895e-18 -1.4849682622544716e-04 0.0000000000000000e+00  -3.0192092358185637e-18 1.4849682622544729e-04 0.0000000000000000e+00  2.8847923862786967e-18 1.4849682622544716e-04 0.0000000000000000e+00  6.1156239934655514e-20 5.7029754567898670e-20 0.0000000000000000e+00  3.1420393241854139e-06 -2.3731754770736451e-20 0.0000000000000000e+00  7.1219783381901569e-21 -4.4828055142863573e-22 0.0000000000000000e+00  -8.0411660889874585e-22 5.7642572015075134e-20 0.0000000000000000e+00  3.1227430967528482e-22 -6.4877028438585191e-20 0.0000000000000000e+00  5.9168381584169405e-20 -2.1464158654779633e-22 0.0000000000000000e+00  5.2019037110098043e-20 2.8970204142205417e-22 0.0000000000000000e+00  5.8648218309424808e-20 1.6969970575643750e-22 0.0000000000000000e+00  4.8089385223025061e-20 -1.9745402549851017e-22 0.0000000000000000e+00  5.3827248311813970e-20 1.5112630751607926e-22 0.0000000000000000e+00  5.4976419829671896e-20 8.5668938926685020e-23 0.0000000000000000e+00  4.5748742608830213e-20 -1.0255330198242337e-22 0.0000000000000000e+00  6.8371901526296458e-20 -5.9336369374316326e-23 0.0000000000000000e+00  5.7202828731459126e-20 3.3639238763318776e-22 0.0000000000000000e+00  5.2078580896989850e-20 2.0293938530531003e-22 0.0000000000000000e+00  4.5470014976129587e-20 -1.0783904221459304e-22 0.0000000000000000e+00  4.7024740178801539e-20 -1.2266164541832270e-22 0.0000000000000000e+00  5.7075648561087901e-20 -6.3688121642306373e-22 0.0000000000000000e+00  5.2530014301682984e-20 2.3084251386815819e-22 0.0000000000000000e+00  5.3392558348693285e-20 8.9546792407157985e-23 0.0000000000000000e+00  6.1028543984393358e-20 -2.4429048724221584e-22 0.0000000000000000e+00  5.7068563331456355e-20 1.7713233189390674e-22 0.0000000000000000e+00  5.8513479773777049e-20 2.2382057127858893e-23 0.0000000000000000e+00  4.7394882928525438e-20 -1.1259915096361905e-22 0.0000000000000000e+00  5.3343077183334421e-20 1.8199354845508506e-22 0.0000000000000000e+00  5.5180891867820507e-20 3.0347221576155401e-22 0.0000000000000000e+00  5.0273802368049787e-20 -1.0333191136266778e-22 0.0000000000000000e+00  7.8035478952090550e-06 -1.1404809977401211e-09 0.0000000000000000e+00  7.4946559140416295e-06 2.2755946061858142e-23 0.0000000000000000e+00  4.7652440266425893e-20 2.8834679500879439e-23 0.0000000000000000e+00  7.8034038955499429e-06 2.6307572515301676e-09 0.0000000000000000e+00  5.8520639128558238e-20 -5.3239767762863679e-22 0.0000000000000000e+00  7.7969083562898251e-06 -3.7953587848110081e-09 0.0000000000000000e+00  7.7954192149262640e-06 -4.2480039940786978e-10 0.0000000000000000e+00  5.4219070384681038e-20 1.9820964560008456e-23 0.0000000000000000e+00  5.6261541022241428e-20 -1.1056353222638992e-21 0.0000000000000000e+00  7.7964248035434816e-06 -2.0143532965442871e-10 0.0000000000000000e+00  7.7801642340206720e-06 -3.0003277996951836e-08 0.0000000000000000e+00  4.7855849585838920e-20 -1.9818774513811329e-22 0.0000000000000000e+00  5.5707356060451216e-20 9.5840346536231913e-22 0.0000000000000000e+00  7.7946203404317873e-06 2.2890634965666301e-10 0.0000000000000000e+00  7.8025222005984748e-06 -7.6070470346632902e-10 0.0000000000000000e+00  7.8004174803013766e-06 -6.5645200945232300e-10 0.0000000000000000e+00  -4.1052326507627961e-21 6.9465512490483188e-20 0.0000000000000000e+00  5.8945848417534737e-06 -3.0552041617444874e-07 0.0000000000000000e+00  7.7933969759723188e-06 1.9151065127238371e-09 0.0000000000000000e+00  7.7913624250378353e-06 4.0111575845571758e-10 0.0000000000000000e+00  -5.9954103914119648e-21 -8.0685051735812590e-20 0.0000000000000000e+00  4.8144496590000878e-20 9.7818752247406357e-23 0.0000000000000000e+00  5.4988350931241494e-20 6.8855473894310431e-22 0.0000000000000000e+00  7.7970594362273209e-06 -2.7231619324033985e-09 0.0000000000000000e+00  7.7995574319346561e-06 2.0626404762649998e-09 0.0000000000000000e+00  7.8004765673018956e-06 -1.9898876528491423e-09 0.0000000000000000e+00  7.6802492012803093e-06 -2.4733389303365163e-07 0.0000000000000000e+00  7.7949304051229610e-06 -5.8645559102001806e-09 0.0000000000000000e+00  -3.5392080467121755e-20 1.1427250419020737e-20 0.0000000000000000e+00  3.1406254647807743e-21 -3.1592259800619362e-20 0.0000000000000000e+00  4.5716735612878307e-21 3.2973645528658688e-20 0.0000000000000000e+00  -3.8183361843749523e-20 9.3670794036164553e-21 0.0000000000000000e+00  7.7197359432263700e-06 -7.4585438694502619e-08 0.0000000000000000e+00  4.5971106793071848e-20 -1.4483549503490596e-22 0.0000000000000000e+00  7.6889943042321244e-06 4.4373784305569452e-07 0.0000000000000000e+00  7.7859467824257060e-06 2.2129893900966958e-10 0.0000000000000000e+00  7.7894307575074151e-06 6.5742612443529577e-10 0.0000000000000000e+00  7.7964086502145732e-06 -3.3474132657077660e-09 0.0000000000000000e+00  7.7113196869269545e-06 1.4261286031944689e-07 0.0000000000000000e+00  7.7955494218818754e-06 -1.5796733642502660e-09 0.0000000000000000e+00  5.2718769364885314e-20 -1.2454556956248082e-23 0.0000000000000000e+00  7.7893000790678203e-06 -1.1195241857882381e-10 0.0000000000000000e+00  6.3985323114745557e-20 9.1502983745803447e-22 0.0000000000000000e+00  7.8025105476205267e-06 -5.9438415415584185e-09 0.0000000000000000e+00  3.7302340941132446e-06 3.0454841915437755e-06 0.0000000000000000e+00  -1.6192512764957139e-19 -1.4849682622544800e-04 0.0000000000000000e+00  -2.5986187740307417e-19 1.4849682622544811e-04 0.0000000000000000e+00  3.8614079863876107e-06 -3.7950195338951217e-06 0.0000000000000000e+00  7.7863073530516701e-06 -1.0862073908850361e-08 0.0000000000000000e+00  7.7930369730752190e-06 7.0039411503798608e-09 0.0000000000000000e+00  5.3126699128882126e-20 4.7069486341978122e-22 0.0000000000000000e+00  7.7923683023033324e-06 -2.4043984662782647e-09 0.0000000000000000e+00  5.5841143225420912e-20 3.3200172167638932e-22 0.0000000000000000e+00  7.7938722392693758e-06 -2.4764615800260404e-09 0.0000000000000000e+00  6.2828691435084181e-20 1.2693326422324780e-22 0.0000000000000000e+00  5.4626732790312827e-20 -1.3517379789117036e-23 0.0000000000000000e+00  5.9307324229647020e-20 3.2570966939368484e-22 0.0000000000000000e+00  7.7963884186285761e-06 2.4123472185699779e-09 0.0000000000000000e+00  5.3027395825250951e-20 1.9332139454429637e-22 0.0000000000000000e+00  5.5203373504811707e-20 1.4569568149226033e-22 0.0000000000000000e+00  7.7914732055263217e-06 5.9991896495477780e-10 0.0000000000000000e+00  7.7990639691789489e-06 1.2428092260497316e-09 0.0000000000000000e+00  5.6311506395516622e-20 2.4856878270547721e-23 0.0000000000000000e+00  7.7975719550188369e-06 5.3501516630230922e-09 0.0000000000000000e+00  5.9968280068116074e-20 6.3089312915292955e-22 0.0000000000000000e+00  7.8011775560539715e-06 -9.9035872530750924e-09 0.0000000000000000e+00  5.1244668411158751e-20 1.7904169567223491e-23 0.0000000000000000e+00  7.7847455453270739e-06 5.2528008841720439e-09 0.0000000000000000e+00  5.8407041826625213e-20 -1.3204968258632107e-23 0.0000000000000000e+00  5.0739688098051012e-20 5.2522563550256943e-22 0.0000000000000000e+00  5.6867648408841513e-20 9.5138738832780635e-22 0.0000000000000000e+00  6.1700652074128188e-20 -3.7904984140832886e-22 0.0000000000000000e+00  7.7980574432030387e-06 5.9064053239816727e-09 0.0000000000000000e+00  7.7998818831799946e-06 9.2211336165872674e-09 0.0000000000000000e+00  7.7976063242512691e-06 9.6314044220498676e-10 0.0000000000000000e+00  -1.6260246222588623e-06 -8.5674013084847354e-06 0.0000000000000000e+00  1.1041376930640080e-20 -1.1840337776154961e-19 0.0000000000000000e+00  7.8251913268457244e-06 -6.5913706360141795e-08 0.0000000000000000e+00  7.8086677240729809e-06 -2.1691301912068910e-08 0.0000000000000000e+00  7.7053044339583755e-06 1.9613219197113344e-08 0.0000000000000000e+00  7.7790235830585639e-06 -8.3546114878986351e-09 0.0000000000000000e+00  1.3090830387869643e-06 6.9700724615363806e-06 0.0000000000000000e+00  7.7858046356744932e-06 -1.3443958374759138e-11 0.0000000000000000e+00  7.8023555827875891e-06 -1.2160993656666508e-12 0.0000000000000000e+00  2.4314050748345546e-20 6.7804563328454269e-20 0.0000000000000000e+00  -1.4352538891988232e-06 7.4110375066336367e-06 0.0000000000000000e+00  7.7847247349911280e-06 -5.3374014952272835e-09 0.0000000000000000e+00  1.3031641859451734e-06 -8.0243501990533225e-06 0.0000000000000000e+00  7.7981436649145211e-06 -1.2948303488003597e-09 0.0000000000000000e+00  4.8305123793715113e-20 -4.3853223618945397e-22 0.0000000000000000e+00  7.7830109929682780e-06 -2.3777368198698547e-08 0.0000000000000000e+00  7.7904472577454032e-06 7.0349219720342161e-11 0.0000000000000000e+00  7.7870394519708465e-06 3.5950503570327903e-08 0.0000000000000000e+00  7.8000634282648070e-06 -1.7350299923971999e-09 0.0000000000000000e+00  7.7966966537055902e-06 -9.2107777276814280e-09 0.0000000000000000e+00  7.7823134266073483e-06 -1.4338960065817853e-06 0.0000000000000000e+00  5.7350040781789296e-20 -7.6827825615712474e-22 0.0000000000000000e+00  7.7825138887053362e-06 -2.7717935088088687e-09 0.0000000000000000e+00  7.4477563037893588e-22 -7.0543935614379161e-20 0.0000000000000000e+00  6.3203820173871371e-22 6.3247423889017984e-20 0.0000000000000000e+00  -1.7787994288462728e-05 -1.9572367312613910e-05 0.0000000000000000e+00  -1.4477480378827097e-05 1.6089086354602750e-05 0.0000000000000000e+00  5.2245521759657213e-20 1.8512050540531197e-23 0.0000000000000000e+00  5.8794789933438244e-20 9.0510066995355309e-22 0.0000000000000000e+00  5.1069771827380688e-20 7.3774146026929163e-23 0.0000000000000000e+00  7.7828848821432532e-06 9.4865609805842726e-09 0.0000000000000000e+00  7.7861387642344455e-06 5.7265184060286322e-09 0.0000000000000000e+00  7.0829622703807484e-06 -1.9498722757992332e-21 0.0000000000000000e+00  5.3052000611978524e-20 -2.0564026679522928e-21 0.0000000000000000e+00  7.7860097191173326e-06 2.2002857545821434e-09 0.0000000000000000e+00  5.9189447385446316e-20 3.8482166560351211e-22 0.0000000000000000e+00  5.0526270689033497e-20 -1.1108704493191705e-22 0.0000000000000000e+00  7.7936573886745377e-06 -9.9127444255044077e-10 0.0000000000000000e+00  7.8021244619020553e-06 8.3384106669911177e-10 0.0000000000000000e+00  7.0748749718196253e-06 2.4935336966361834e-21 0.0000000000000000e+00  5.5933659675065281e-20 -6.6136272731772298e-22 0.0000000000000000e+00  2.8994893282687404e-06 -2.8156863295362539e-07 0.0000000000000000e+00  5.7423090349016594e-20 1.8937839314769905e-21 0.0000000000000000e+00  6.7521482873683102e-20 -2.5721813231626257e-21 0.0000000000000000e+00  7.7939956412335482e-06 -3.4925657442800998e-09 0.0000000000000000e+00  7.7670030468321554e-06 -9.2343028912702807e-09 0.0000000000000000e+00  7.8042550397988114e-06 5.3435146333186180e-11 0.0000000000000000e+00  7.7895301528648721e-06 4.9120602323579669e-09 0.0000000000000000e+00  5.5928597861282622e-20 6.2240182246225331e-23 0.0000000000000000e+00  6.1252584633097200e-20 1.9171878464671406e-22 0.0000000000000000e+00  5.5389413911987962e-20 -1.0463685652325145e-21 0.0000000000000000e+00  4.9781861906896611e-20 1.2702758677101319e-21 0.0000000000000000e+00  7.7880771482401031e-06 -1.2558172547953139e-09 0.0000000000000000e+00  7.7890425852984530e-06 2.9597653585377486e-09 0.0000000000000000e+00  7.7872175175573634e-06 -2.5758424416054101e-09 0.0000000000000000e+00  7.0629008280388379e-06 2.1074056999921745e-06 0.0000000000000000e+00  7.7980541109342042e-06 -2.2418996621707151e-09 0.0000000000000000e+00  7.7853234338897264e-06 2.5228983683272845e-09 0.0000000000000000e+00  7.7961397675122454e-06 2.2906224957902513e-09 0.0000000000000000e+00  7.7527701862116428e-06 8.7173889802332482e-09 0.0000000000000000e+00  7.7925933467300263e-06 5.5271351721159971e-10 0.0000000000000000e+00  7.7679386319910241e-06 2.1403133734704784e-09 0.0000000000000000e+00  7.7860024116740401e-06 1.4562589350464563e-09 0.0000000000000000e+00  7.7527001702445383e-06 5.6988607865301650e-10 0.0000000000000000e+00  7.7950281868775188e-06 -7.4812718106412781e-09 0.0000000000000000e+00  7.7717736374737589e-06 4.5655118198144805e-09 0.0000000000000000e+00  7.7645915219499900e-06 -2.8721245727064569e-09 0.0000000000000000e+00  7.7824613636920193e-06 3.1927618720924145e-09 0.0000000000000000e+00  7.7934540272504391e-06 9.7235765661760808e-09 0.0000000000000000e+00  7.7409279166128986e-06 -9.0120521091798866e-09 0.0000000000000000e+00  7.7402529625132110e-06 8.4293130326581687e-09 0.0000000000000000e+00  7.7529521750362284e-06 -1.1997616210421884e-09 0.0000000000000000e+00  7.7370831145632298e-06 -5.5968721385003136e-09 0.0000000000000000e+00  7.7567128466005904e-06 -4.7398542635488897e-09 0.0000000000000000e+00  7.7945460599593029e-06 -2.1222950611761693e-09 0.0000000000000000e+00  7.7990202747514561e-06 -1.4406059189642490e-09 0.0000000000000000e+00  7.8024425778167945e-06 1.8304262757675071e-09 0.0000000000000000e+00  7.7646139371262674e-06 -7.3558864582386701e-09 0.0000000000000000e+00  7.1458815657316065e-06 -4.3654175216201487e-07 0.0000000000000000e+00  7.9813276353326778e-06 -2.3642921047268830e-07 0.0000000000000000e+00  7.7484048244708063e-06 -7.5418676803731668e-08 0.0000000000000000e+00  7.7973583315006276e-06 -2.3783478208409292e-09 0.0000000000000000e+00  7.8015101309709978e-06 -5.2361339273630215e-09 0.0000000000000000e+00  7.8017116743040492e-06 -1.2357747026543868e-09 0.0000000000000000e+00  5.2328332080213073e-21 -2.0248789370169406e-20 0.0000000000000000e+00  7.2019991242849821e-21 1.5859751359854128e-20 0.0000000000000000e+00  7.7975461063757765e-06 3.7540013080264268e-09 0.0000000000000000e+00  7.7958494450749714e-06 -1.2319259108617152e-08 0.0000000000000000e+00  7.8029133677461659e-06 1.5164263776555176e-09 0.0000000000000000e+00  7.7425837790465723e-06 3.4797348497220006e-09 0.0000000000000000e+00  7.7576626050232469e-06 4.1728661135073663e-09 0.0000000000000000e+00  7.8002651750792807e-06 -1.0486777969723122e-07 0.0000000000000000e+00  7.7013069931940219e-06 -4.8406005652850695e-07 0.0000000000000000e+00  7.5984601678076148e-06 8.3209491503535519e-09 0.0000000000000000e+00  7.7469697329687469e-06 6.7593817120741581e-09 0.0000000000000000e+00  7.7488686527739897e-06 -6.7014053124343982e-10 0.0000000000000000e+00  7.4475677515249903e-06 3.3846197839666583e-09 0.0000000000000000e+00  7.7708603644521845e-06 1.0259788385330228e-07 0.0000000000000000e+00  7.7956493374921559e-06 -1.0852401375875930e-09 0.0000000000000000e+00  7.7189875056940224e-06 9.1607181045504343e-09 0.0000000000000000e+00  6.3176867658665649e-08 -9.1714440824635384e-06 0.0000000000000000e+00  7.7969822739366376e-06 4.8187376897801611e-09 0.0000000000000000e+00  8.9910943447301525e-08 7.9542215509266427e-06 0.0000000000000000e+00  -3.3264925271436440e-19 -3.4234719911879204e-19 0.0000000000000000e+00  -6.4106136714833655e-21 4.6746421816834455e-20 0.0000000000000000e+00  3.0961821627586981e-21 5.1685973656959648e-20 0.0000000000000000e+00  2.7755684078954572e-21 -5.3731787697661558e-20 0.0000000000000000e+00  -6.2872040253361890e-21 -5.6532875864179951e-20 0.0000000000000000e+00  -3.6008252918521342e-19 2.8020642640780870e-19 0.0000000000000000e+00  7.7710491561562494e-06 -5.3963495719355789e-09 0.0000000000000000e+00  7.4954285609624121e-06 -3.7715101739533704e-09 0.0000000000000000e+00  7.4959325502171210e-06 -1.7935747167049808e-08 0.0000000000000000e+00  7.4880208909068321e-06 2.6127038478406333e-09 0.0000000000000000e+00  7.4918547410172653e-06 -1.0396420979617333e-09 0.0000000000000000e+00  7.4855136600030736e-06 8.2700755157734474e-09 0.0000000000000000e+00  7.7308384835245308e-06 1.0241800072917127e-08 0.0000000000000000e+00  7.7642444875845462e-06 1.1301139213579066e-07 0.0000000000000000e+00  7.7333292409230265e-06 -1.3411924172668948e-09 0.0000000000000000e+00  7.7873170033819525e-06 -4.3887891470730572e-09 0.0000000000000000e+00  7.7987240980665162e-06 2.1929129031850756e-09 0.0000000000000000e+00  7.8012537869045050e-06 -1.7167678462335884e-09 0.0000000000000000e+00  -1.3998714059826995e-06 1.1507353915521948e-05 0.0000000000000000e+00  -2.8618734093503456e-06 -1.1977019208691985e-05 0.0000000000000000e+00  7.5098071442496148e-06 -2.5562918235899208e-08 0.0000000000000000e+00  7.7175168165233819e-06 9.6560231891830994e-09 0.0000000000000000e+00  7.8021212848155097e-06 -1.5666440695185832e-09 0.0000000000000000e+00  7.8004443593567376e-06 -1.7808429858062598e-09 0.0000000000000000e+00  5.5344134090524260e-20 6.2735327311699945e-22 0.0000000000000000e+00  6.9003562660469803e-06 5.0419486950693651e-07 0.0000000000000000e+00  3.2010987867201615e-05 3.7403649845380897e-05 0.0000000000000000e+00  3.2469699990156256e-05 -3.9870597619816728e-05 0.0000000000000000e+00  7.8050100997836521e-06 -1.2536840306750401e-09 0.0000000000000000e+00  7.4318311049743233e-06 7.4820437586870428e-09 0.0000000000000000e+00  5.2899725635755125e-20 1.5030266090104048e-22 0.0000000000000000e+00  7.4655014293857040e-06 -1.2023583070136328e-08 0.0000000000000000e+00  7.8050835397578638e-06 1.3768314866421305e-09 0.0000000000000000e+00  7.6985700640020457e-06 6.1956199553177645e-07 0.0000000000000000e+00  7.7916810460874557e-06 3.1874706908543146e-10 0.0000000000000000e+00  5.7114259315844782e-20 -5.6097229564953448e-22 0.0000000000000000e+00  7.8009438868406305e-06 3.1322328407369798e-09 0.0000000000000000e+00  7.7979504473044152e-06 -3.4772755949348071e-09 0.0000000000000000e+00  7.7337475902937817e-06 -2.6407952641281621e-09 0.0000000000000000e+00  7.7546747951954264e-06 1.4792852396819390e-09 0.0000000000000000e+00  7.7354619947777523e-06 -5.8526603163373602e-09 0.0000000000000000e+00  5.6604446047591984e-20 4.6306926407003814e-22 0.0000000000000000e+00  7.7592247624042329e-06 -2.2592980700154175e-09 0.0000000000000000e+00  7.8017546935046439e-06 6.2116320782693323e-09 0.0000000000000000e+00  7.5049946170618152e-06 1.7593651390849655e-08 0.0000000000000000e+00  7.8005223111419350e-06 -3.3708253555174664e-10 0.0000000000000000e+00  7.8014500082258686e-06 -3.8372531101783517e-08 0.0000000000000000e+00  7.7947028857909563e-06 1.0793823981573983e-09 0.0000000000000000e+00  7.7956992532064587e-06 -1.8308092667469016e-09 0.0000000000000000e+00  7.5240596574722524e-06 -1.1790520583632989e-07 0.0000000000000000e+00  7.7541084705299695e-06 4.7254697839302102e-09 0.0000000000000000e+00  7.7510602847184835e-06 -6.9427171008416063e-09 0.0000000000000000e+00  7.7433147588882619e-06 -5.0095404894415215e-09 0.0000000000000000e+00  7.7570264821666289e-06 -1.2537656488442355e-08 0.0000000000000000e+00  7.7941879600743189e-06 2.4168423952250582e-09 0.0000000000000000e+00  5.7738658348707712e-20 -6.7519483781447778e-22 0.0000000000000000e+00  7.2141471208882283e-06 -4.1696306664743426e-06 0.0000000000000000e+00  4.2601937249059890e-06 -7.8499658517559626e-06 0.0000000000000000e+00  1.8167942539273712e-06 -5.8998724497612856e-06 0.0000000000000000e+00  5.5763866036072035e-06 -1.9950249240503868e-06 0.0000000000000000e+00  7.8029148085351078e-06 4.0749368294004998e-10 0.0000000000000000e+00  7.7965232798637111e-06 -4.1143894165019899e-09 0.0000000000000000e+00  7.7955585199184644e-06 6.6277366066765485e-10 0.0000000000000000e+00  7.7953837598074240e-06 -1.4898075428986640e-09 0.0000000000000000e+00  7.7851896645533914e-06 -1.6488329617740150e-08 0.0000000000000000e+00  7.7496789402568678e-06 1.7263127690638817e-08 0.0000000000000000e+00  6.1442544718567414e-20 1.3068604079538226e-22 0.0000000000000000e+00  7.7441372982062640e-06 1.0806696520613446e-08 0.0000000000000000e+00  7.7956499384608783e-06 -2.3088588778901851e-09 0.0000000000000000e+00  7.7954226241268388e-06 4.0064991995299664e-11 0.0000000000000000e+00  7.7423300558667314e-06 6.9467303416772480e-09 0.000000