<?xml version="1.0"?>
<VTKFile type="UnstructuredGrid"  version="0.1"  >
<UnstructuredGrid>
<Piece  NumberOfPoints="1079" NumberOfCells="1944">
<Points>
<DataArray  type="Float64"  NumberOfComponents="3"  format="ascii">0.08500000000000001 0.02 0  0.005 0.02 0  0.005 0.03 0  0 0.03 0  0 0 0  0.005 0 0  0.005 0.01 0  0.08500000000000001 0.01 0  0 0.015 0  0 0.0075 0  0 0.0225 0  0.04500000000000001 0.02 0  0.04500000000000001 0.01 0  0.025 0.01 0  0.025 0.02 0  0.065 0.02 0  0.065 0.01 0  0.035 0.02 0  0.035 0.01 0  0.07500000000000001 0.02 0  0.07500000000000001 0.01 0  0.015 0.02 0  0.015 0.01 0  0.05500000000000001 0.01 0  0.05500000000000001 0.02 0  0.07000000000000001 0.01 0  0.07000000000000001 0.02 0  0.05 0.01 0  0.03 0.01 0  0.03 0.02 0  0.04000000000000001 0.01 0  0.01 0.01 0  0.02 0.02 0  0.06 0.015 0  0.08500000000000001 0.015 0  0.05 0.02 0  0.07250000000000001 0.015 0  0.04000000000000001 0.02 0  0.03750000000000001 0.015 0  0.0525 0.015 0  0.02 0.01 0  0.01 0.02 0  0.0275 0.015 0  0.0125 0.015 0  0.08000000000000002 0.01 0  0.08000000000000002 0.02 0  0.0325 0.014375 0  0.04291666666666667 0.015 0  0.065 0.015 0  0.005 0.005 0  0.005 0.015 0  0.02208333333333334 0.015 0  0.07791666666666668 0.015 0  0.005 0.025 0  0.06 0.01 0  0.06 0.02 0  0.01729166666666667 0.01572916666666667 0  0.04770833333333334 0.01427083333333334 0  0.06875000000000001 0.01625 0  0.008750000000000001 0.01625 0  0.05625000000000001 0.01625 0  0 0.00375 0  0 0.01875 0  0 0.01125 0  0 0.02625 0  0.08145833333333334 0.01354166666666667 0  0.0675 0.01 0  0.0075 0.0125 0  0.0625 0.0175 0  0.0575 0.0125 0  0.0625 0.0125 0  0.08207465277777778 0.01707465277777778 0  0.06767857142857144 0.01321428571428571 0  0.0175 0.01 0  0.01875 0.01291382575757576 0  0.0475 0.02 0  0.04564168086314595 0.01679860519591141 0  0.00296875 0.0125 0  0.0025 0.03 0  0.0025 0 0  0.00296875 0.0175 0  0.01521990740740741 0.0132349537037037 0  0.0497800925925926 0.0167650462962963 0  0.0325 0.02 0  0.03474264705882353 0.01674632352941176 0  0.03750000000000001 0.02 0  0.03025735294117647 0.01674632352941176 0  0.0275 0.02 0  0.0525 0.02 0  0.0125 0.01 0  0.04020833333333334 0.01322916666666667 0  0.03750000000000001 0.01 0  0.0225 0.02 0  0.02479166666666667 0.01677083333333333 0  0.07520833333333335 0.01322916666666667 0  0.07250000000000001 0.01 0  0.07520833333333335 0.01677083333333334 0  0.07250000000000001 0.02 0  0.04020833333333334 0.01677083333333333 0  0.0225 0.01 0  0.02375 0.01262152777777778 0  0.04250000000000001 0.02 0  0.04250000000000001 0.01 0  0.07750000000000001 0.01 0  0.07750000000000001 0.02 0  0.05036151960784314 0.01294424019607843 0  0.0705560064935065 0.01284699675324675 0  0.05458333333333334 0.01291666666666666 0  0.0021875 0.024375 0  0.005 0.0275 0  0.01125 0.0175 0  0.01463848039215686 0.01705575980392157 0  0.01 0.01375 0  0.03625 0.0125 0  0.0021875 0.009375 0  0.05375000000000001 0.0175 0  0.07125000000000001 0.0175 0  0.005 0.0025 0  0.0021875 0.005625 0  0.02655220103578155 0.01234889948210923 0  0.002187499999999999 0.020625 0  0.02979166666666667 0.01302083333333333 0  0.0525 0.01 0  0.07895833333333334 0.0125 0  0.01994277885235332 0.01704213007736944 0  0.07934656179076068 0.01733823814273861 0  0.04505722114764669 0.01295786992263056 0  0.06625 0.0175 0  0.006250000000000001 0.0175 0  0.05750000000000001 0.02 0  0.05875000000000001 0.0175 0  0.005 0.0225 0  0.005 0.0075 0  0.002375 0.027375 0  0.002375 0.002625000000000001 0  0.0475 0.01 0  0.0175 0.02 0  0.0325 0.01 0  0.03375 0.0121875 0  0.04261299435028249 0.01749205508474576 0  0.08500000000000001 0.0125 0  0.08250000000000002 0.01 0  0.02121963399965531 0.01224824108143494 0  0.0675 0.02 0  0.0125 0.02 0  0.02720152243589744 0.0175 0  0.03715165441176471 0.0175 0  0.08500000000000001 0.0175 0  0.0275 0.01 0  0.0025 0.0149560546875 0  0.0075 0.01 0  0.0075 0.02 0  0.06526785714285716 0.0125 0  0.01281031447005516 0.0125 0  0.0625 0.015 0  0.06 0.0125 0  0.05750000000000001 0.01 0  0.0625 0.02 0  0.0625 0.01 0  0.08250000000000002 0.02 0  0.04260103740101855 0.01252623201412851 0  0.02240052247582197 0.01750164767101344 0  0.07293583459427785 0.01238479732953041 0  0.005234374999999999 0.012265625 0  0.03528131980640358 0.01454684009679821 0  0.0325 0.01760027210036557 0  0.02532593822924343 0.01428227733767297 0  0.08009952069819683 0.01527145502895417 0  0.01987282359856536 0.01482587683689801 0  0.04828232595121382 0.01210233572595705 0  0.01671767404878618 0.01789766427404295 0  0.05125 0.01829007549029352 0  0.05247215456215357 0.01288882122882024 0  0.07338729919678716 0.01799385040160642 0  0.03838729919678716 0.01200614959839357 0  0.07717482110586968 0.01780301674207099 0  0.04771860040890012 0.01773306039388322 0  0.03125 0.01160380747126437 0  0.06875000000000001 0.01154265873015873 0  0.07625000000000001 0.01154065860215054 0  0.01625 0.01153997817696946 0  0.068125 0.018125 0  0.05437500000000001 0.015625 0  0.066875 0.015625 0  0.07039794950204951 0.01494384850614853 0  0.05687500000000001 0.018125 0  0.006875 0.015625 0  0.008749999999999999 0.01833333333333333 0  0.010625 0.015625 0  0.05625 0.01416666666666667 0  0.05812500000000001 0.015625 0  0.0449088595298192 0.01494528408816316 0  0 0.016875 0  0 0.013125 0  0.04962452342047931 0.01478673066448802 0  0.0153754765795207 0.01521326933551198 0  0.0771774565913315 0.01322498191305479 0  0.01857756431135545 0.01840228599899994 0  0.04642243568864456 0.01159771400100006 0  0.08125000000000002 0.01155637254901961 0  0.08317650804863432 0.0118234919513657 0  0.08288217288011697 0.01511353252923977 0  0.02837253504384828 0.0117177464035174 0  0.03896057962520807 0.01831163685754031 0  0.01125 0.0114244162490927 0  0.00935910490099115 0.0119067901980177 0  0.02946078431372549 0.01495404411764706 0  0.02875 0.0185829434466942 0  0.002968749999999999 0.0225 0  0.064375 0.016875 0  0.00296875 0.0075 0  0 0.001875 0  0 0.005625 0  0 0.009375 0  0 0.020625 0  0 0.024375 0  0 0.028125 0  0.06062500000000001 0.01812500000000001 0  0.008303571428571429 0.01446428571428572 0  0.01375 0.01865917058160413 0  0.05137790313978056 0.01143372888932909 0  0.04125000000000001 0.01131513063942604 0  0.04101690263896279 0.01844430285842771 0  0.02399563533148224 0.01844349395710867 0  0.08125000000000002 0.01868815426145731 0  0.05354684380692146 0.01145463537600848 0  0.01699195823639423 0.01315138909884649 0  0.07598357371794873 0.015 0  0.04098357371794872 0.015 0  0.003744047619047619 0.00375 0  0.003344630281690141 0.02580853873239437 0  0.04625 0.0187354532243972 0  0.06388392857142858 0.01138392857142858 0  0.06375 0.01375 0  0.05875 0.01375 0  0.06375 0.02 0  0.00622802734375 0.01372802734375 0  0.003630681818181818 0.001369318181818182 0  0.003630681818181818 0.02863068181818182 0  0.06125 0.01625 0  0.06125 0.01125 0  0.05625000000000001 0.01 0  0.05875 0.01125 0  0.06125 0.01375 0  0.08337864763241221 0.0183786476324122 0  0.05213634138653413 0.01674432930673294 0  0.04375000000000001 0.01 0  0.07424178685897437 0.01529258578431373 0  0.03924178685897436 0.01529258578431372 0  0.03410139294454583 0.01843406022904556 0  0.03089860705545417 0.01843406022904556 0  0.02094160484316717 0.01850229584291991 0  0.04375000000000001 0.02 0  0.04437042160883325 0.01820701498672512 0  0.04816311705429156 0.01600061344661149 0  0.07151224904251052 0.0114127410511319 0  0.04395528506193162 0.01639387970349481 0  0.0128750358694518 0.0167500179347259 0  0.02855808448399799 0.01642839899839741 0  0.02812690373330794 0.01340955081400569 0  0.08358500641945087 0.01351822349116885 0  0.05590277777777778 0.01173611111111111 0  0.06683110430364615 0.01164926404662283 0  0.02573206694914602 0.01842532451809762 0  0.01438126661842046 0.01166701193099454 0  0.02384283211216029 0.01526549696571563 0  0.03625 0.02 0  0.004609375000000001 0.0182421875 0  0.003398437500000001 0.01943359375 0  0.001728307845744682 0.01894718251329787 0  0.004377805359085963 0.01656966216675735 0  0.04649673309852075 0.0153889662370871 0  0.03615513600614297 0.01592654988586041 0  0.03316985071935832 0.01598763605018279 0  0.03110111603888768 0.01529816275177977 0  0.01370614113484869 0.0138804542047638 0  0.04930041102671841 0.01842260568883502 0  0.07875000000000001 0.02 0  0.0745395359848485 0.01165101111925709 0  0.03860755698543604 0.01373741558556884 0  0.02605038706571737 0.01573944002207753 0  0.07559826163500957 0.01841729376139847 0  0.04437500000000001 0.01149157931286774 0  0.06874116707361365 0.01454618473032123 0  0.003761917372881356 0.0239307468220339 0  0.003984374999999999 0.01125 0  0.003768503289473684 0.01392539576480263 0  0.001796875 0.0111328125 0  0.003761917372881356 0.008930746822033899 0  0.005 0.00625 0  0.003761917372881355 0.0210692531779661 0  0.06633928571428571 0.01410714285714285 0  0.006484375 0.01125 0  0.08364120589325512 0.01657288979763549 0  0.03576267476503373 0.0184116442851204 0  0.07370875846579374 0.0137848203678562 0  0.06964285714285715 0.01758928571428571 0  0.05520833333333334 0.01833333333333333 0  0.06491071428571429 0.01839285714285714 0  0.0510098951944636 0.01559941474766356 0  0.01786087179886325 0.0115702210443714 0  0.01972197383235524 0.01160576093166696 0  0.01804697593127788 0.01433503795474974 0  0.001644074528704677 0.01642892723865279 0  0.00125 0.03 0  0.001497685185185185 0.001267746913580247 0  0.07315451164202422 0.01643443118912983 0  0.001233906745910645 0.0140625 0  0.01162635071030191 0.01362229857939618 0  0.01528023503083844 0.01845923557506155 0  0.06625 0.02 0  0.07695012019230771 0.01624387078484555 0  0.03139091092855769 0.01320776147621796 0  0.03857339107781042 0.01675295051810485 0  0.001754993120977522 0.02590789105493891 0  0.002288757784711197 0.00412546923654445 0  0.07914382119690884 0.01404430049871201 0  0.001391810103286306 0.01257390899021902 0  0.0419501201923077 0.01614675005432421 0  0.001484375 0.007018229166666667 0  0.001484375 0.02201822916666666 0  0.048
[...]
<PointData  Vectors="velocity"> 
<DataArray  type="Float64"  Name="velocity"  NumberOfComponents="3" format="ascii">5.6572819697637799e-07 4.3086851663414045e-21 0.0000000000000000e+00  1.1836258791674120e-20 -1.3682178168447493e-20 0.0000000000000000e+00  5.1569541313852964e-19 -2.7825594022071450e-05 0.0000000000000000e+00  -6.0487582292940341e-19 -2.7825594022071392e-05 0.0000000000000000e+00  -5.7902642878712178e-19 2.7825594022071399e-05 0.0000000000000000e+00  5.2732764050255745e-19 2.7825594022071372e-05 0.0000000000000000e+00  1.1021852831904031e-20 1.0350610358850571e-20 0.0000000000000000e+00  5.8101994964189636e-07 -4.3924563654608691e-21 0.0000000000000000e+00  1.2880173590343901e-21 -8.0501084939649381e-23 0.0000000000000000e+00  -1.4354351429535313e-22 1.0703586969702695e-20 0.0000000000000000e+00  5.9374684010676679e-23 -1.1609021406877338e-20 0.0000000000000000e+00  1.0910583550913968e-20 -3.5169261716283853e-23 0.0000000000000000e+00  9.6850057085504547e-21 5.6268362341003145e-23 0.0000000000000000e+00  1.1186604603464361e-20 3.4152065783483047e-23 0.0000000000000000e+00  9.2560920946596813e-21 -3.9530081716124453e-23 0.0000000000000000e+00  1.0460568763721661e-20 3.2083540148624163e-23 0.0000000000000000e+00  9.9607112623521562e-21 1.4717592527349366e-23 0.0000000000000000e+00  8.6610218170265158e-21 -2.0522023344962467e-23 0.0000000000000000e+00  1.2194328766101398e-20 -1.2224910064464133e-23 0.0000000000000000e+00  1.0667761977700340e-20 6.5264254118284619e-23 0.0000000000000000e+00  9.8671887534853650e-21 3.9282563053637075e-23 0.0000000000000000e+00  8.8736126165150852e-21 -2.3108366188841366e-23 0.0000000000000000e+00  9.0981493493550579e-21 -1.8904210129200350e-23 0.0000000000000000e+00  1.0468649107938234e-20 -1.2223637037786023e-22 0.0000000000000000e+00  1.0067829860887784e-20 4.3308397388801755e-23 0.0000000000000000e+00  9.6846556243893389e-21 1.5302299968311806e-23 0.0000000000000000e+00  1.1005798622185521e-20 -3.9557520924942668e-23 0.0000000000000000e+00  9.5105858150832538e-21 3.3332428449841931e-23 0.0000000000000000e+00  1.0678275982454862e-20 8.3932714229470857e-24 0.0000000000000000e+00  8.9217100572080625e-21 -2.4834919789047591e-23 0.0000000000000000e+00  9.7761559843401974e-21 3.3756155248303870e-23 0.0000000000000000e+00  1.0013637723820498e-20 5.8614571268586756e-23 0.0000000000000000e+00  9.2207022995065135e-21 -1.9149819394325246e-23 0.0000000000000000e+00  1.4434940000518122e-06 -2.1107605172328069e-10 0.0000000000000000e+00  1.3863756243790117e-06 4.2047932039973487e-24 0.0000000000000000e+00  9.1335688730482304e-21 7.6304808415830875e-24 0.0000000000000000e+00  1.4434674449773306e-06 4.8663083024091282e-10 0.0000000000000000e+00  1.0902917470541317e-20 -9.6413963584341848e-23 0.0000000000000000e+00  1.4422658243760465e-06 -7.0209478131454095e-10 0.0000000000000000e+00  1.4419904288666423e-06 -7.8516468832848694e-11 0.0000000000000000e+00  9.5096275282032187e-21 4.3380017497483541e-24 0.0000000000000000e+00  1.0409624330106343e-20 -2.0766968180876213e-22 0.0000000000000000e+00  1.4421764379713326e-06 -3.7947167407101070e-11 0.0000000000000000e+00  1.4391685822485782e-06 -5.6577969128735061e-09 0.0000000000000000e+00  9.3791557058665785e-21 -3.6348844086466195e-23 0.0000000000000000e+00  9.6951031295764062e-21 1.8420126193805133e-22 0.0000000000000000e+00  1.4418425587409668e-06 4.2192704014660479e-11 0.0000000000000000e+00  1.4433042172516414e-06 -1.4074863032852497e-10 0.0000000000000000e+00  1.4429151092948099e-06 -1.2141854500928090e-10 0.0000000000000000e+00  -7.5884603544403199e-22 1.2838182107840017e-20 0.0000000000000000e+00  1.0903604934571921e-06 -5.7514122141574226e-08 0.0000000000000000e+00  1.4416163381644231e-06 3.4978265929294309e-10 0.0000000000000000e+00  1.4412408301578685e-06 7.4194169963609502e-11 0.0000000000000000e+00  -1.1526785194064071e-21 -1.5244617525480656e-20 0.0000000000000000e+00  8.9665085931041913e-21 1.3489521479279425e-23 0.0000000000000000e+00  1.0675182897801063e-20 1.2753304762485952e-22 0.0000000000000000e+00  1.4422998813183760e-06 -5.2473268808053679e-10 0.0000000000000000e+00  1.4427559901856813e-06 3.8153381332213331e-10 0.0000000000000000e+00  1.4429258845311098e-06 -3.6817229051645182e-10 0.0000000000000000e+00  1.4208227465721578e-06 -4.6088788428576505e-08 0.0000000000000000e+00  1.4418997774646408e-06 -1.0846640476808808e-09 0.0000000000000000e+00  -6.5140832405554313e-21 1.8106674481573945e-21 0.0000000000000000e+00  5.7947759145157794e-22 -5.7804678258379625e-21 0.0000000000000000e+00  8.1444184507194629e-22 6.2095566088358337e-21 0.0000000000000000e+00  -7.4007077730862831e-21 1.8948672076018021e-21 0.0000000000000000e+00  1.4279940580339425e-06 -1.3793732798739519e-08 0.0000000000000000e+00  8.9616294492446608e-21 -2.5219280154832566e-23 0.0000000000000000e+00  1.4219050907960709e-06 8.1686319255262008e-08 0.0000000000000000e+00  1.4402377913293838e-06 3.9743529984597346e-11 0.0000000000000000e+00  1.4408820775374627e-06 1.2208772250820910e-10 0.0000000000000000e+00  1.4421731896362810e-06 -6.1852951256775652e-10 0.0000000000000000e+00  1.4264378704460009e-06 2.6375776835359032e-08 0.0000000000000000e+00  1.4420145844249091e-06 -2.9227140506891373e-10 0.0000000000000000e+00  9.4296382550612420e-21 -2.3950335019582782e-24 0.0000000000000000e+00  1.4408500987386439e-06 -3.0836787697638332e-11 0.0000000000000000e+00  1.1558992446242562e-20 1.7579443673334317e-22 0.0000000000000000e+00  1.4433020009350482e-06 -1.0997482868906464e-09 0.0000000000000000e+00  6.8966138523641065e-07 5.6182185814208464e-07 0.0000000000000000e+00  -3.3431893892773831e-20 -2.7825594022071524e-05 0.0000000000000000e+00  -4.9691693676658690e-20 2.7825594022071534e-05 0.0000000000000000e+00  7.1458260906744735e-07 -7.0350109695466709e-07 0.0000000000000000e+00  1.4402801134588669e-06 -2.0454502655056820e-09 0.0000000000000000e+00  1.4415500784603927e-06 1.2957572836883632e-09 0.0000000000000000e+00  1.0165173321125528e-20 8.6037608897267115e-23 0.0000000000000000e+00  1.4414261054002568e-06 -4.4461312086685289e-10 0.0000000000000000e+00  1.0316444300781427e-20 6.2739025774265652e-23 0.0000000000000000e+00  1.4417042564986668e-06 -4.5830969939179312e-10 0.0000000000000000e+00  1.1420440741472741e-20 2.1614985202428432e-23 0.0000000000000000e+00  9.7255339892655827e-21 -1.0860599086437729e-24 0.0000000000000000e+00  1.1002025863132014e-20 5.5586630624246729e-23 0.0000000000000000e+00  1.4421697526566658e-06 4.4617899104322303e-10 0.0000000000000000e+00  9.6924832549831769e-21 3.2796237394720794e-23 0.0000000000000000e+00  1.0441942986251199e-20 2.8264361896470780e-23 0.0000000000000000e+00  1.4412614273244295e-06 1.0963869001826101e-10 0.0000000000000000e+00  1.4426647615857327e-06 2.2973668226027508e-10 0.0000000000000000e+00  1.0168552607395734e-20 3.4659037534162971e-24 0.0000000000000000e+00  1.4423884436616217e-06 9.8972757388633852e-10 0.0000000000000000e+00  1.1238564932238444e-20 1.1640565932739866e-22 0.0000000000000000e+00  1.4430556755419379e-06 -1.8317064522436895e-09 0.0000000000000000e+00  9.1669348184184274e-21 3.3753762298863959e-24 0.0000000000000000e+00  1.4400137150318748e-06 9.7031363065188529e-10 0.0000000000000000e+00  1.0798729598170257e-20 -1.8340233692544594e-24 0.0000000000000000e+00  1.0431259556124971e-20 9.2656690433232423e-23 0.0000000000000000e+00  1.0497245046278975e-20 1.7736846246454365e-22 0.0000000000000000e+00  1.0897063037783271e-20 -6.7776029209513665e-23 0.0000000000000000e+00  1.4424787460813039e-06 1.0927963556956444e-09 0.0000000000000000e+00  1.4428158388212137e-06 1.7057865909846548e-09 0.0000000000000000e+00  1.4423951052083924e-06 1.7785271071489207e-10 0.0000000000000000e+00  -3.0439149965450249e-07 -1.5861830106238194e-06 0.0000000000000000e+00  2.0358766627003173e-21 -2.2266121924185215e-20 0.0000000000000000e+00  1.4476212427003534e-06 -1.2307135309388162e-08 0.0000000000000000e+00  1.4444742785669769e-06 -4.0529832061315197e-09 0.0000000000000000e+00  1.4252174594791374e-06 3.4064273244478592e-09 0.0000000000000000e+00  1.4389559012326244e-06 -1.5448860618477400e-09 0.0000000000000000e+00  2.4177069856423487e-07 1.2871782640539508e-06 0.0000000000000000e+00  1.4402125888059162e-06 -2.6077748745574562e-12 0.0000000000000000e+00  1.4432736462945054e-06 -1.5319474116992165e-12 0.0000000000000000e+00  4.2595546525901818e-21 1.1978032163331392e-20 0.0000000000000000e+00  -2.6814990849750376e-07 1.3680847125875532e-06 0.0000000000000000e+00  1.4400122669187614e-06 -9.8676691258859388e-10 0.0000000000000000e+00  2.4099874456692158e-07 -1.4863973102129310e-06 0.0000000000000000e+00  1.4424942176290605e-06 -2.4047129884142545e-10 0.0000000000000000e+00  9.2044102995699005e-21 -7.7546264783373083e-23 0.0000000000000000e+00  1.4396918896873595e-06 -4.3953314113307204e-09 0.0000000000000000e+00  1.4410761363937686e-06 6.2566862119592960e-12 0.0000000000000000e+00  1.4404406072290837e-06 6.6483523473422489e-09 0.0000000000000000e+00  1.4428495506684760e-06 -3.2123286771390735e-10 0.0000000000000000e+00  1.4422270841965147e-06 -1.7035110389439107e-09 0.0000000000000000e+00  1.4400785546992491e-06 -2.6591847670324785e-07 0.0000000000000000e+00  1.1116290087641515e-20 -1.4170929683897882e-22 0.0000000000000000e+00  1.4396046764009625e-06 -5.1460740137738915e-10 0.0000000000000000e+00  1.2653610121981603e-22 -1.4120908074012323e-20 0.0000000000000000e+00  1.0104182429003865e-22 1.1898307064703495e-20 0.0000000000000000e+00  -3.3295156509442413e-06 -3.6322497634423159e-06 0.0000000000000000e+00  -2.7052252167558799e-06 2.9806255643854596e-06 0.0000000000000000e+00  9.9983133455981170e-21 2.9348372808159216e-24 0.0000000000000000e+00  1.0999978692445004e-20 1.6251451782610051e-22 0.0000000000000000e+00  9.3918593356011905e-21 1.6773388835652921e-23 0.0000000000000000e+00  1.4396724152171684e-06 1.7551537441380897e-09 0.0000000000000000e+00  1.4402747178185255e-06 1.0582486567008507e-09 0.0000000000000000e+00  1.3102040678189045e-06 -3.3693802850303109e-22 0.0000000000000000e+00  9.5008991480586545e-21 -3.2380371467272048e-22 0.0000000000000000e+00  1.4402456622377664e-06 4.0370026341495755e-10 0.0000000000000000e+00  1.0514086905423985e-20 6.5839080387897945e-23 0.0000000000000000e+00  9.8015443139928378e-21 -2.1839928736614761e-23 0.0000000000000000e+00  1.4416654384727694e-06 -1.8412875282343402e-10 0.0000000000000000e+00  1.4432303460528169e-06 1.5478598565754388e-10 0.0000000000000000e+00  1.3087076100897185e-06 4.2926820953062820e-22 0.0000000000000000e+00  1.0471966051580453e-20 -1.2502323542634657e-22 0.0000000000000000e+00  5.3633492010291968e-07 -5.3482368259761619e-08 0.0000000000000000e+00  1.0465467802158559e-20 3.4245640713869630e-22 0.0000000000000000e+00  1.2488184577578708e-20 -4.8507108267896519e-22 0.0000000000000000e+00  1.4417272571992710e-06 -6.4564177263556078e-10 0.0000000000000000e+00  1.4366634276710307e-06 -1.7709511563884763e-09 0.0000000000000000e+00  1.4436249548373246e-06 9.9183429381504031e-12 0.0000000000000000e+00  1.4409006254839723e-06 9.0948609074484955e-10 0.0000000000000000e+00  1.0522541604157519e-20 1.1568712246084763e-23 0.0000000000000000e+00  1.2333042863999361e-20 2.6125154330069512e-23 0.0000000000000000e+00  1.0081766709625550e-20 -1.9916039893883272e-22 0.0000000000000000e+00  9.5139171492550692e-21 2.2918476910287463e-22 0.0000000000000000e+00  1.4406340766555006e-06 -2.3163096591363338e-10 0.0000000000000000e+00  1.4408139113259019e-06 5.4435094145151311e-10 0.0000000000000000e+00  1.4404743369612533e-06 -4.7562262474294108e-10 0.0000000000000000e+00  1.3058060289349386e-06 3.8886115900473610e-07 0.0000000000000000e+00  1.4424777860474214e-06 -4.1468360938930627e-10 0.0000000000000000e+00  1.4401220696701228e-06 4.6585087748181560e-10 0.0000000000000000e+00  1.4421233139675758e-06 4.2236187927832279e-10 0.0000000000000000e+00  1.4341035767568551e-06 1.6123067603077664e-09 0.0000000000000000e+00  1.4414674436848827e-06 9.3047401489464763e-11 0.0000000000000000e+00  1.4369064230291594e-06 3.9634560310809649e-10 0.0000000000000000e+00  1.4402698270425468e-06 2.5279808646397464e-10 0.0000000000000000e+00  1.4340875652066467e-06 1.0500132622539566e-10 0.0000000000000000e+00  1.4419179547401215e-06 -1.3839575119402263e-09 0.0000000000000000e+00  1.4376156950404298e-06 8.4305250711233845e-10 0.0000000000000000e+00  1.4362873152847743e-06 -5.3093478544778126e-10 0.0000000000000000e+00  1.4395926732163548e-06 5.8928940472023033e-10 0.0000000000000000e+00  1.4416264636508443e-06 1.7972315239366389e-09 0.0000000000000000e+00  1.4319099815479557e-06 -1.6670643863589298e-09 0.0000000000000000e+00  1.4317867155644881e-06 1.5597810209828971e-09 0.0000000000000000e+00  1.4341354394926632e-06 -2.2277044918832945e-10 0.0000000000000000e+00  1.4311715315097901e-06 -1.0472724756101530e-09 0.0000000000000000e+00  1.4348297791410375e-06 -8.7760785346837717e-10 0.0000000000000000e+00  1.4418288557999784e-06 -3.9247647693603312e-10 0.0000000000000000e+00  1.4426565040976366e-06 -2.6642227621402403e-10 0.0000000000000000e+00  1.4432895699067974e-06 3.3851360800010481e-10 0.0000000000000000e+00  1.4362935434468724e-06 -1.3603798979287805e-09 0.0000000000000000e+00  1.3219385883745260e-06 -8.1393294818666728e-08 0.0000000000000000e+00  1.4767209573738489e-06 -4.3920712851748639e-08 0.0000000000000000e+00  1.4333305708458954e-06 -1.4148831427854800e-08 0.0000000000000000e+00  1.4423490365750849e-06 -4.3989262922280819e-10 0.0000000000000000e+00  1.4431169867442576e-06 -9.6858206373488182e-10 0.0000000000000000e+00  1.4431543782953713e-06 -2.2866039889655183e-10 0.0000000000000000e+00  8.8635852346013080e-22 -3.8298272029721160e-21 0.0000000000000000e+00  1.3400329855465411e-21 2.8496579708359642e-21 0.0000000000000000e+00  1.4423839709075141e-06 6.9445398956696372e-10 0.0000000000000000e+00  1.4420728584327520e-06 -2.3193733858921851e-09 0.0000000000000000e+00  1.4433771029546294e-06 2.8096187060427310e-10 0.0000000000000000e+00  1.4322304185910579e-06 6.3803777248069335e-10 0.0000000000000000e+00  1.4350056265694345e-06 7.7305422982224112e-10 0.0000000000000000e+00  1.4428871472532555e-06 -1.9393925292028857e-08 0.0000000000000000e+00  1.4245909764253873e-06 -8.9535048279108198e-08 0.0000000000000000e+00  1.4055663155205187e-06 1.5386936500215819e-09 0.0000000000000000e+00  1.4330262764595587e-06 1.2504525630543663e-09 0.0000000000000000e+00  1.4333790994446228e-06 -1.2311063870096983e-10 0.0000000000000000e+00  1.3775000959947239e-06 5.7440108375669354e-10 0.0000000000000000e+00  1.4371810176604786e-06 1.8825873826691727e-08 0.0000000000000000e+00  1.4420330068593981e-06 -2.0115326128476674e-10 0.0000000000000000e+00  1.4278517519324841e-06 1.6938882680049638e-09 0.0000000000000000e+00  1.0830100287323598e-08 -1.6991072315454727e-06 0.0000000000000000e+00  1.4422799056384172e-06 8.9114789945386095e-10 0.0000000000000000e+00  1.5914972978112098e-08 1.4693150816499185e-06 0.0000000000000000e+00  -6.3295612137680706e-20 -6.1331705755440959e-20 0.0000000000000000e+00  -1.1558960491723326e-21 8.7365885434375079e-21 0.0000000000000000e+00  5.7638436283297153e-22 9.6338092396085535e-21 0.0000000000000000e+00  5.3072250202525939e-22 -1.0109360450811046e-20 0.0000000000000000e+00  -1.1561180955680183e-21 -1.0599914224533740e-20 0.0000000000000000e+00  -7.1600921065081122e-20 5.2783950819175565e-20 0.0000000000000000e+00  1.4374823276386183e-06 -9.9834451253787255e-10 0.0000000000000000e+00  1.3864196135107794e-06 -1.1084493257637866e-09 0.0000000000000000e+00  1.3866580747111885e-06 -3.3466998366118816e-09 0.0000000000000000e+00  1.3851270885642471e-06 4.9005724566175306e-10 0.0000000000000000e+00  1.3858367694194490e-06 -1.8976163073841314e-10 0.0000000000000000e+00  1.3846672642776173e-06 1.5232108050866620e-09 0.0000000000000000e+00  1.4300477560796134e-06 1.8935656202792653e-09 0.0000000000000000e+00  1.4362216018231081e-06 2.0902755849315456e-08 0.0000000000000000e+00  1.4305056802590536e-06 -2.5033610259353277e-10 0.0000000000000000e+00  1.4404780347383952e-06 -8.3169373136878169e-10 0.0000000000000000e+00  1.4426019703127037e-06 4.0571669718025012e-10 0.0000000000000000e+00  1.4430696121959053e-06 -3.1758003349124066e-10 0.0000000000000000e+00  -2.6306785234754966e-07 2.1338415838406349e-06 0.0000000000000000e+00  -5.3733693004031300e-07 -2.2240496355485004e-06 0.0000000000000000e+00  1.3891670954992037e-06 -4.7283568335218184e-09 0.0000000000000000e+00  1.4275813260458511e-06 1.7847494929052143e-09 0.0000000000000000e+00  1.4432302545505469e-06 -2.8978957166642885e-10 0.0000000000000000e+00  1.4429197933574319e-06 -3.2952393810390392e-10 0.0000000000000000e+00  1.0153689197935078e-20 1.1852808556052280e-22 0.0000000000000000e+00  1.2761558641414731e-06 9.2525435900989508e-08 0.0000000000000000e+00  5.9363521430651785e-06 6.9589350255135136e-06 0.0000000000000000e+00  6.0347399229717295e-06 -7.4270378579382624e-06 0.0000000000000000e+00  1.4437646732860781e-06 -2.3206760319157741e-10 0.0000000000000000e+00  1.3747437588534482e-06 1.3857890150479575e-09 0.0000000000000000e+00  9.4536084696329862e-21 2.6579311593367373e-23 0.0000000000000000e+00  1.3809616660664941e-06 -2.2199864252961824e-09 0.0000000000000000e+00  1.4437780381938416e-06 2.5473322216709971e-10 0.0000000000000000e+00  1.4240728308211050e-06 1.1460886406531071e-07 0.0000000000000000e+00  1.4412989865600747e-06 5.9066637406782235e-11 0.0000000000000000e+00  1.1107011239768027e-20 -1.0121430502392032e-22 0.0000000000000000e+00  1.4430124790788978e-06 5.7941711789176316e-10 0.0000000000000000e+00  1.4424585981465682e-06 -6.4325462161333351e-10 0.0000000000000000e+00  1.4305826793495704e-06 -4.8763224979457806e-10 0.0000000000000000e+00  1.4344536999528031e-06 2.7344466545093383e-10 0.0000000000000000e+00  1.4309056368162887e-06 -1.0859790476318188e-09 0.0000000000000000e+00  1.0322685947982526e-20 8.5944994451352971e-23 0.0000000000000000e+00  1.4352962373750601e-06 -4.1717655097545691e-10 0.0000000000000000e+00  1.4431624765563880e-06 1.1489250489796956e-09 0.0000000000000000e+00  1.3882670095452999e-06 3.2590910424406926e-09 0.0000000000000000e+00  1.4429343374864147e-06 -6.2425210429840384e-11 0.0000000000000000e+00  1.4431578971108049e-06 -7.1784275978981734e-09 0.0000000000000000e+00  1.4418581277401030e-06 1.9917678452437648e-10 0.0000000000000000e+00  1.4420420389719165e-06 -3.3901493939666292e-10 0.0000000000000000e+00  1.3918036634016973e-06 -2.1801208481842105e-08 0.0000000000000000e+00  1.4343478812846233e-06 8.7514242821101100e-10 0.0000000000000000e+00  1.4337857337757856e-06 -1.2830132629162781e-09 0.0000000000000000e+00  1.4323524391771872e-06 -9.2837879590121820e-10 0.0000000000000000e+00  1.4348411716635368e-06 -2.3454199005189180e-09 0.0000000000000000e+00  1.4417628431427019e-06 4.4468593912154696e-10 0.0000000000000000e+00  1.0956747213817269e-20 -1.2530942016473686e-22 0.0000000000000000e+00  1.3352297846943938e-06 -7.7255049312957752e-07 0.0000000000000000e+00  7.8859106197374244e-07 -1.4541594835390516e-06 0.0000000000000000e+00  3.3621352676405897e-07 -1.0931398184991688e-06 0.0000000000000000e+00  1.0318034188936487e-06 -3.7019349992209398e-07 0.0000000000000000e+00  1.4433769546772830e-06 7.5261016491720681e-11 0.0000000000000000e+00  1.4421945991202924e-06 -7.6105451386938320e-10 0.0000000000000000e+00  1.4420162158920832e-06 1.2251110532516008e-10 0.0000000000000000e+00  1.4419838608628814e-06 -2.7585992965940002e-10 0.0000000000000000e+00  1.4400715846187985e-06 -3.1162114108036794e-09 0.0000000000000000e+00  1.4335316023044175e-06 3.1940148485177549e-09 0.0000000000000000e+00  1.1580793768944643e-20 2.3089961534761047e-23 0.0000000000000000e+00  1.4325028188298021e-06 1.9999892230974705e-09 0.0000000000000000e+00  1.4420330466622963e-06 -4.2715437813667035e-10 0.0000000000000000e+00  1.4419913525858697e-06 6.3302913178408544e-12 0.0000000000000000e+00  1.4321698495575072e-06 1.2855634691068081e-09 0.000000