<?xml version="1.0"?>
<VTKFile type="UnstructuredGrid"  version="0.1"  >
<UnstructuredGrid>
<Piece  NumberOfPoints="1079" NumberOfCells="1944">
<Points>
<DataArray  type="Float64"  NumberOfComponents="3"  format="ascii">0.08500000000000001 0.02 0  0.005 0.02 0  0.005 0.03 0  0 0.03 0  0 0 0  0.005 0 0  0.005 0.01 0  0.08500000000000001 0.01 0  0 0.015 0  0 0.0075 0  0 0.0225 0  0.04500000000000001 0.02 0  0.04500000000000001 0.01 0  0.025 0.01 0  0.025 0.02 0  0.065 0.02 0  0.065 0.01 0  0.035 0.02 0  0.035 0.01 0  0.07500000000000001 0.02 0  0.07500000000000001 0.01 0  0.015 0.02 0  0.015 0.01 0  0.05500000000000001 0.01 0  0.05500000000000001 0.02 0  0.07000000000000001 0.01 0  0.07000000000000001 0.02 0  0.05 0.01 0  0.03 0.01 0  0.03 0.02 0  0.04000000000000001 0.01 0  0.01 0.01 0  0.02 0.02 0  0.06 0.015 0  0.08500000000000001 0.015 0  0.05 0.02 0  0.07250000000000001 0.015 0  0.04000000000000001 0.02 0  0.03750000000000001 0.015 0  0.0525 0.015 0  0.02 0.01 0  0.01 0.02 0  0.0275 0.015 0  0.0125 0.015 0  0.08000000000000002 0.01 0  0.08000000000000002 0.02 0  0.0325 0.014375 0  0.04291666666666667 0.015 0  0.065 0.015 0  0.005 0.005 0  0.005 0.015 0  0.02208333333333334 0.015 0  0.07791666666666668 0.015 0  0.005 0.025 0  0.06 0.01 0  0.06 0.02 0  0.01729166666666667 0.01572916666666667 0  0.04770833333333334 0.01427083333333334 0  0.06875000000000001 0.01625 0  0.008750000000000001 0.01625 0  0.05625000000000001 0.01625 0  0 0.00375 0  0 0.01875 0  0 0.01125 0  0 0.02625 0  0.08145833333333334 0.01354166666666667 0  0.0675 0.01 0  0.0075 0.0125 0  0.0625 0.0175 0  0.0575 0.0125 0  0.0625 0.0125 0  0.08207465277777778 0.01707465277777778 0  0.06767857142857144 0.01321428571428571 0  0.0175 0.01 0  0.01875 0.01291382575757576 0  0.0475 0.02 0  0.04564168086314595 0.01679860519591141 0  0.00296875 0.0125 0  0.0025 0.03 0  0.0025 0 0  0.00296875 0.0175 0  0.01521990740740741 0.0132349537037037 0  0.0497800925925926 0.0167650462962963 0  0.0325 0.02 0  0.03474264705882353 0.01674632352941176 0  0.03750000000000001 0.02 0  0.03025735294117647 0.01674632352941176 0  0.0275 0.02 0  0.0525 0.02 0  0.0125 0.01 0  0.04020833333333334 0.01322916666666667 0  0.03750000000000001 0.01 0  0.0225 0.02 0  0.02479166666666667 0.01677083333333333 0  0.07520833333333335 0.01322916666666667 0  0.07250000000000001 0.01 0  0.07520833333333335 0.01677083333333334 0  0.07250000000000001 0.02 0  0.04020833333333334 0.01677083333333333 0  0.0225 0.01 0  0.02375 0.01262152777777778 0  0.04250000000000001 0.02 0  0.04250000000000001 0.01 0  0.07750000000000001 0.01 0  0.07750000000000001 0.02 0  0.05036151960784314 0.01294424019607843 0  0.0705560064935065 0.01284699675324675 0  0.05458333333333334 0.01291666666666666 0  0.0021875 0.024375 0  0.005 0.0275 0  0.01125 0.0175 0  0.01463848039215686 0.01705575980392157 0  0.01 0.01375 0  0.03625 0.0125 0  0.0021875 0.009375 0  0.05375000000000001 0.0175 0  0.07125000000000001 0.0175 0  0.005 0.0025 0  0.0021875 0.005625 0  0.02655220103578155 0.01234889948210923 0  0.002187499999999999 0.020625 0  0.02979166666666667 0.01302083333333333 0  0.0525 0.01 0  0.07895833333333334 0.0125 0  0.01994277885235332 0.01704213007736944 0  0.07934656179076068 0.01733823814273861 0  0.04505722114764669 0.01295786992263056 0  0.06625 0.0175 0  0.006250000000000001 0.0175 0  0.05750000000000001 0.02 0  0.05875000000000001 0.0175 0  0.005 0.0225 0  0.005 0.0075 0  0.002375 0.027375 0  0.002375 0.002625000000000001 0  0.0475 0.01 0  0.0175 0.02 0  0.0325 0.01 0  0.03375 0.0121875 0  0.04261299435028249 0.01749205508474576 0  0.08500000000000001 0.0125 0  0.08250000000000002 0.01 0  0.02121963399965531 0.01224824108143494 0  0.0675 0.02 0  0.0125 0.02 0  0.02720152243589744 0.0175 0  0.03715165441176471 0.0175 0  0.08500000000000001 0.0175 0  0.0275 0.01 0  0.0025 0.0149560546875 0  0.0075 0.01 0  0.0075 0.02 0  0.06526785714285716 0.0125 0  0.01281031447005516 0.0125 0  0.0625 0.015 0  0.06 0.0125 0  0.05750000000000001 0.01 0  0.0625 0.02 0  0.0625 0.01 0  0.08250000000000002 0.02 0  0.04260103740101855 0.01252623201412851 0  0.02240052247582197 0.01750164767101344 0  0.07293583459427785 0.01238479732953041 0  0.005234374999999999 0.012265625 0  0.03528131980640358 0.01454684009679821 0  0.0325 0.01760027210036557 0  0.02532593822924343 0.01428227733767297 0  0.08009952069819683 0.01527145502895417 0  0.01987282359856536 0.01482587683689801 0  0.04828232595121382 0.01210233572595705 0  0.01671767404878618 0.01789766427404295 0  0.05125 0.01829007549029352 0  0.05247215456215357 0.01288882122882024 0  0.07338729919678716 0.01799385040160642 0  0.03838729919678716 0.01200614959839357 0  0.07717482110586968 0.01780301674207099 0  0.04771860040890012 0.01773306039388322 0  0.03125 0.01160380747126437 0  0.06875000000000001 0.01154265873015873 0  0.07625000000000001 0.01154065860215054 0  0.01625 0.01153997817696946 0  0.068125 0.018125 0  0.05437500000000001 0.015625 0  0.066875 0.015625 0  0.07039794950204951 0.01494384850614853 0  0.05687500000000001 0.018125 0  0.006875 0.015625 0  0.008749999999999999 0.01833333333333333 0  0.010625 0.015625 0  0.05625 0.01416666666666667 0  0.05812500000000001 0.015625 0  0.0449088595298192 0.01494528408816316 0  0 0.016875 0  0 0.013125 0  0.04962452342047931 0.01478673066448802 0  0.0153754765795207 0.01521326933551198 0  0.0771774565913315 0.01322498191305479 0  0.01857756431135545 0.01840228599899994 0  0.04642243568864456 0.01159771400100006 0  0.08125000000000002 0.01155637254901961 0  0.08317650804863432 0.0118234919513657 0  0.08288217288011697 0.01511353252923977 0  0.02837253504384828 0.0117177464035174 0  0.03896057962520807 0.01831163685754031 0  0.01125 0.0114244162490927 0  0.00935910490099115 0.0119067901980177 0  0.02946078431372549 0.01495404411764706 0  0.02875 0.0185829434466942 0  0.002968749999999999 0.0225 0  0.064375 0.016875 0  0.00296875 0.0075 0  0 0.001875 0  0 0.005625 0  0 0.009375 0  0 0.020625 0  0 0.024375 0  0 0.028125 0  0.06062500000000001 0.01812500000000001 0  0.008303571428571429 0.01446428571428572 0  0.01375 0.01865917058160413 0  0.05137790313978056 0.01143372888932909 0  0.04125000000000001 0.01131513063942604 0  0.04101690263896279 0.01844430285842771 0  0.02399563533148224 0.01844349395710867 0  0.08125000000000002 0.01868815426145731 0  0.05354684380692146 0.01145463537600848 0  0.01699195823639423 0.01315138909884649 0  0.07598357371794873 0.015 0  0.04098357371794872 0.015 0  0.003744047619047619 0.00375 0  0.003344630281690141 0.02580853873239437 0  0.04625 0.0187354532243972 0  0.06388392857142858 0.01138392857142858 0  0.06375 0.01375 0  0.05875 0.01375 0  0.06375 0.02 0  0.00622802734375 0.01372802734375 0  0.003630681818181818 0.001369318181818182 0  0.003630681818181818 0.02863068181818182 0  0.06125 0.01625 0  0.06125 0.01125 0  0.05625000000000001 0.01 0  0.05875 0.01125 0  0.06125 0.01375 0  0.08337864763241221 0.0183786476324122 0  0.05213634138653413 0.01674432930673294 0  0.04375000000000001 0.01 0  0.07424178685897437 0.01529258578431373 0  0.03924178685897436 0.01529258578431372 0  0.03410139294454583 0.01843406022904556 0  0.03089860705545417 0.01843406022904556 0  0.02094160484316717 0.01850229584291991 0  0.04375000000000001 0.02 0  0.04437042160883325 0.01820701498672512 0  0.04816311705429156 0.01600061344661149 0  0.07151224904251052 0.0114127410511319 0  0.04395528506193162 0.01639387970349481 0  0.0128750358694518 0.0167500179347259 0  0.02855808448399799 0.01642839899839741 0  0.02812690373330794 0.01340955081400569 0  0.08358500641945087 0.01351822349116885 0  0.05590277777777778 0.01173611111111111 0  0.06683110430364615 0.01164926404662283 0  0.02573206694914602 0.01842532451809762 0  0.01438126661842046 0.01166701193099454 0  0.02384283211216029 0.01526549696571563 0  0.03625 0.02 0  0.004609375000000001 0.0182421875 0  0.003398437500000001 0.01943359375 0  0.001728307845744682 0.01894718251329787 0  0.004377805359085963 0.01656966216675735 0  0.04649673309852075 0.0153889662370871 0  0.03615513600614297 0.01592654988586041 0  0.03316985071935832 0.01598763605018279 0  0.03110111603888768 0.01529816275177977 0  0.01370614113484869 0.0138804542047638 0  0.04930041102671841 0.01842260568883502 0  0.07875000000000001 0.02 0  0.0745395359848485 0.01165101111925709 0  0.03860755698543604 0.01373741558556884 0  0.02605038706571737 0.01573944002207753 0  0.07559826163500957 0.01841729376139847 0  0.04437500000000001 0.01149157931286774 0  0.06874116707361365 0.01454618473032123 0  0.003761917372881356 0.0239307468220339 0  0.003984374999999999 0.01125 0  0.003768503289473684 0.01392539576480263 0  0.001796875 0.0111328125 0  0.003761917372881356 0.008930746822033899 0  0.005 0.00625 0  0.003761917372881355 0.0210692531779661 0  0.06633928571428571 0.01410714285714285 0  0.006484375 0.01125 0  0.08364120589325512 0.01657288979763549 0  0.03576267476503373 0.0184116442851204 0  0.07370875846579374 0.0137848203678562 0  0.06964285714285715 0.01758928571428571 0  0.05520833333333334 0.01833333333333333 0  0.06491071428571429 0.01839285714285714 0  0.0510098951944636 0.01559941474766356 0  0.01786087179886325 0.0115702210443714 0  0.01972197383235524 0.01160576093166696 0  0.01804697593127788 0.01433503795474974 0  0.001644074528704677 0.01642892723865279 0  0.00125 0.03 0  0.001497685185185185 0.001267746913580247 0  0.07315451164202422 0.01643443118912983 0  0.001233906745910645 0.0140625 0  0.01162635071030191 0.01362229857939618 0  0.01528023503083844 0.01845923557506155 0  0.06625 0.02 0  0.07695012019230771 0.01624387078484555 0  0.03139091092855769 0.01320776147621796 0  0.03857339107781042 0.01675295051810485 0  0.001754993120977522 0.02590789105493891 0  0.002288757784711197 0.00412546923654445 0  0.07914382119690884 0.01404430049871201 0  0.001391810103286306 0.01257390899021902 0  0.0419501201923077 0.01614675005432421 0  0.001484375 0.007018229166666667 0  0.001484375 0.02201822916666666 0  0.048
[...]
<PointData  Vectors="velocity"> 
<DataArray  type="Float64"  Name="velocity"  NumberOfComponents="3" format="ascii">1.7385611480859102e-06 1.3232360131702512e-20 0.0000000000000000e+00  3.6694639732222223e-20 -4.0587851508689700e-20 0.0000000000000000e+00  1.5587184667796158e-18 -8.4975343590864966e-05 0.0000000000000000e+00  -1.7784383169890153e-18 -8.4975343590864804e-05 0.0000000000000000e+00  -1.7991178323028429e-18 8.4975343590864804e-05 0.0000000000000000e+00  1.6595311039345191e-18 8.4975343590864750e-05 0.0000000000000000e+00  3.3985105617789441e-20 3.3433783442542416e-20 0.0000000000000000e+00  1.7855394598605437e-06 -1.3406359712591468e-20 0.0000000000000000e+00  4.1418597427772544e-21 -2.2887563365194430e-22 0.0000000000000000e+00  -4.5476768759526013e-22 3.1913569818762955e-20 0.0000000000000000e+00  1.7828597026757377e-22 -3.6372638851853218e-20 0.0000000000000000e+00  3.5180347146539804e-20 -1.1651216379966859e-22 0.0000000000000000e+00  2.8368963371371912e-20 1.6834957801093152e-22 0.0000000000000000e+00  3.4320068492181922e-20 1.0309257124703579e-22 0.0000000000000000e+00  2.7468392663981922e-20 -1.1228244344242895e-22 0.0000000000000000e+00  3.2590716751293615e-20 1.0102465121998777e-22 0.0000000000000000e+00  3.1261207383727730e-20 4.1723035088243668e-23 0.0000000000000000e+00  2.5561018908276224e-20 -5.0449791049610655e-23 0.0000000000000000e+00  3.8483800619167825e-20 -3.7950285920020352e-23 0.0000000000000000e+00  3.2557177480455598e-20 1.9874880301776242e-22 0.0000000000000000e+00  2.9633090825163715e-20 1.2265025956558786e-22 0.0000000000000000e+00  2.8302764423917393e-20 -7.6574782076748843e-23 0.0000000000000000e+00  2.5287545602320228e-20 -6.4894808209631795e-23 0.0000000000000000e+00  3.2696602693286542e-20 -3.7180653287834631e-22 0.0000000000000000e+00  2.9978758925890979e-20 1.3022518465571756e-22 0.0000000000000000e+00  2.9162783228498233e-20 4.2506388800866130e-23 0.0000000000000000e+00  3.5599983990896129e-20 -1.2400768698000664e-22 0.0000000000000000e+00  3.2497015807541147e-20 1.0360966392872891e-22 0.0000000000000000e+00  3.2338681328979154e-20 1.8312592195520915e-23 0.0000000000000000e+00  2.7300614295098528e-20 -7.2820735541332976e-23 0.0000000000000000e+00  2.9263664797865631e-20 1.0504835681260279e-22 0.0000000000000000e+00  3.1099757039539194e-20 1.8766116769055599e-22 0.0000000000000000e+00  2.7834840839901913e-20 -5.8349114127675580e-23 0.0000000000000000e+00  4.4353295979270685e-06 -6.4839943881220839e-10 0.0000000000000000e+00  4.2597964823789710e-06 6.4188254903437133e-25 0.0000000000000000e+00  2.7661904975223935e-20 1.8825688563300099e-23 0.0000000000000000e+00  4.4352478855644181e-06 1.4952452440443407e-09 0.0000000000000000e+00  3.2224504394762762e-20 -2.9302507838475358e-22 0.0000000000000000e+00  4.4315558616208039e-06 -2.1572335526362212e-09 0.0000000000000000e+00  4.4307095783686758e-06 -2.4134313401531900e-10 0.0000000000000000e+00  3.0657903673013360e-20 1.3289055784551126e-23 0.0000000000000000e+00  3.2839886279502156e-20 -6.3607916526040430e-22 0.0000000000000000e+00  4.4312811219644036e-06 -1.1559686289521828e-10 0.0000000000000000e+00  4.4220390542930520e-06 -1.7227065711908597e-08 0.0000000000000000e+00  2.8211318737330969e-20 -1.1539315583005141e-22 0.0000000000000000e+00  3.0202488258910662e-20 5.7119333454153677e-22 0.0000000000000000e+00  4.4302553651602751e-06 1.2986163672210732e-10 0.0000000000000000e+00  4.4347465379255129e-06 -4.3241978129490932e-10 0.0000000000000000e+00  4.4335506312083154e-06 -3.7309132938008979e-10 0.0000000000000000e+00  -2.3138584031572122e-21 3.8415025531986407e-20 0.0000000000000000e+00  3.3503011758888341e-06 -1.7526230145226234e-07 0.0000000000000000e+00  4.4295601613260964e-06 1.0812788115345992e-09 0.0000000000000000e+00  4.4284051457417918e-06 2.2797722945063085e-10 0.0000000000000000e+00  -3.4896733525992770e-21 -4.5369802153064495e-20 0.0000000000000000e+00  2.8272774843121322e-20 5.9322340072620628e-23 0.0000000000000000e+00  3.1675831527902330e-20 3.8756027939253141e-22 0.0000000000000000e+00  4.4316515947134328e-06 -1.5816724103321523e-09 0.0000000000000000e+00  4.4330617568831942e-06 1.1723309969842043e-09 0.0000000000000000e+00  4.4335839630688889e-06 -1.1311368410809860e-09 0.0000000000000000e+00  4.3654700172689659e-06 -1.4112219142637851e-07 0.0000000000000000e+00  4.4304313747593054e-06 -3.3330028215533221e-09 0.0000000000000000e+00  -1.9353651257432429e-20 6.0150800832979681e-21 0.0000000000000000e+00  1.7348557521852797e-21 -1.7742029960492756e-20 0.0000000000000000e+00  2.6098136471918720e-21 1.8862653119014359e-20 0.0000000000000000e+00  -2.3310441874648585e-20 5.7561060457337765e-21 0.0000000000000000e+00  4.3876988436299347e-06 -4.2387468616240654e-08 0.0000000000000000e+00  2.7090116503060197e-20 -7.9098351531978162e-23 0.0000000000000000e+00  4.3695765230186086e-06 2.5157001023201959e-07 0.0000000000000000e+00  4.4253249914073504e-06 1.2384018858095318e-10 0.0000000000000000e+00  4.4273049038557511e-06 3.7444043438457605e-10 0.0000000000000000e+00  4.4312715177313437e-06 -1.9014868349771614e-09 0.0000000000000000e+00  4.3829163156845398e-06 8.1049824434537522e-08 0.0000000000000000e+00  4.4307836984766948e-06 -8.9794967192079679e-10 0.0000000000000000e+00  2.9382160005665301e-20 -6.0320779849560479e-24 0.0000000000000000e+00  4.4272180402174426e-06 -7.9976950102126770e-11 0.0000000000000000e+00  3.7470857029525648e-20 5.3744093469968518e-22 0.0000000000000000e+00  4.4347398157995358e-06 -3.3787469309392432e-09 0.0000000000000000e+00  2.1195943868050521e-06 1.7285040734034516e-06 0.0000000000000000e+00  -9.6137050354194256e-20 -8.4975343590865238e-05 0.0000000000000000e+00  -1.4868339253723383e-19 8.4975343590865265e-05 0.0000000000000000e+00  2.1952101491743317e-06 -2.1594113619886048e-06 0.0000000000000000e+00  4.4254905977954096e-06 -6.2321247019965369e-09 0.0000000000000000e+00  4.4293560875782151e-06 3.9811372104167277e-09 0.0000000000000000e+00  3.1192673871877451e-20 2.6260272862281699e-22 0.0000000000000000e+00  4.4289755720964671e-06 -1.3663505737375988e-09 0.0000000000000000e+00  3.0651188887468759e-20 2.0123947117870870e-22 0.0000000000000000e+00  4.4298302934730916e-06 -1.4079030052434648e-09 0.0000000000000000e+00  3.2684273224807429e-20 7.4093008774900685e-23 0.0000000000000000e+00  2.7539400620948251e-20 -3.9582701790382248e-24 0.0000000000000000e+00  3.3309618522605317e-20 1.8712146786249853e-22 0.0000000000000000e+00  4.4312605152784708e-06 1.3710247763637673e-09 0.0000000000000000e+00  3.0311502644830995e-20 1.0167127332059498e-22 0.0000000000000000e+00  3.2446872180618771e-20 8.3824522887441557e-23 0.0000000000000000e+00  4.4284682683712263e-06 3.3882713119887680e-10 0.0000000000000000e+00  4.4327813699977614e-06 7.0612408488899860e-10 0.0000000000000000e+00  3.1547327488176902e-20 1.0218564270064098e-23 0.0000000000000000e+00  4.4319328175838300e-06 3.0409834475200859e-09 0.0000000000000000e+00  3.3423023834938290e-20 3.6621382979682340e-22 0.0000000000000000e+00  4.4339825860609766e-06 -5.6285275058571015e-09 0.0000000000000000e+00  2.8026776125164540e-20 7.4845299010524440e-24 0.0000000000000000e+00  4.4246392183205813e-06 2.9833878546986362e-09 0.0000000000000000e+00  3.3804718742098190e-20 2.2008280431053509e-24 0.0000000000000000e+00  3.0073758271518491e-20 3.0027664038392157e-22 0.0000000000000000e+00  3.2665593138800765e-20 5.6126460014341916e-22 0.0000000000000000e+00  3.5293788634995134e-20 -2.0944446099622882e-22 0.0000000000000000e+00  4.4322095651610036e-06 3.3574253053200140e-09 0.0000000000000000e+00  4.4332458928117652e-06 5.2411595112821753e-09 0.0000000000000000e+00  4.4319528468481344e-06 5.4692202381987024e-10 0.0000000000000000e+00  -9.3000433958711057e-07 -4.8717342012766615e-06 0.0000000000000000e+00  5.8612291535722848e-21 -6.7610424336849463e-20 0.0000000000000000e+00  4.4478306942518404e-06 -3.7648393426946848e-08 0.0000000000000000e+00  4.4382931797705326e-06 -1.2394193851536711e-08 0.0000000000000000e+00  4.3793234808418646e-06 1.0790018738516734e-08 0.0000000000000000e+00  4.4213880086383548e-06 -4.7476553994184746e-09 0.0000000000000000e+00  7.4343118259806930e-07 3.9581507093635384e-06 0.0000000000000000e+00  4.4252459758852875e-06 -7.8381455553984080e-12 0.0000000000000000e+00  4.4346522429324785e-06 -2.8179535302914838e-12 0.0000000000000000e+00  1.2437609326302508e-20 3.7153185385454398e-20 0.0000000000000000e+00  -8.2004560935653919e-07 4.2077150177675949e-06 0.0000000000000000e+00  4.4246312826596774e-06 -3.0327477477196301e-09 0.0000000000000000e+00  7.4058879200208227e-07 -4.5641520119783637e-06 0.0000000000000000e+00  4.4322577969925249e-06 -7.3749710845316392e-10 0.0000000000000000e+00  2.9192447275212575e-20 -2.4257068486741978e-22 0.0000000000000000e+00  4.4236517443701398e-06 -1.3509564456291078e-08 0.0000000000000000e+00  4.4278923901958468e-06 2.9082842022016398e-11 0.0000000000000000e+00  4.4259471672777903e-06 2.0430476721974648e-08 0.0000000000000000e+00  4.4333492895751971e-06 -9.8661427611182927e-10 0.0000000000000000e+00  4.4314362193907048e-06 -5.2346881604228522e-09 0.0000000000000000e+00  4.4240873113539953e-06 -8.1608195015634711e-07 0.0000000000000000e+00  3.3467369785764642e-20 -4.5023781331116164e-22 0.0000000000000000e+00  4.4233769156917677e-06 -1.5784785104082882e-09 0.0000000000000000e+00  4.0292693035758070e-22 -4.1453652886800123e-20 0.0000000000000000e+00  3.2719061522709871e-22 3.6224385054289466e-20 0.0000000000000000e+00  -1.0173163592262450e-05 -1.1143495190917076e-05 0.0000000000000000e+00  -8.2724390122426506e-06 9.1518938583655218e-06 0.0000000000000000e+00  3.1093020693247324e-20 1.0610565553719100e-23 0.0000000000000000e+00  3.3711650911545171e-20 5.1367039207729283e-22 0.0000000000000000e+00  2.8977583735400254e-20 5.1639490157484515e-23 0.0000000000000000e+00  4.4235863366025113e-06 5.3924594886011902e-09 0.0000000000000000e+00  4.4254364106518543e-06 3.2531113387797294e-09 0.0000000000000000e+00  4.0257734047843476e-06 -1.0660659735396941e-21 0.0000000000000000e+00  3.0479394582362662e-20 -1.0740320135913621e-21 0.0000000000000000e+00  4.4253546876733976e-06 1.2452523309102722e-09 0.0000000000000000e+00  3.3124062678141170e-20 2.0635675812300371e-22 0.0000000000000000e+00  3.0785132141132430e-20 -6.7946444958357041e-23 0.0000000000000000e+00  4.4297096774791009e-06 -5.6464966119930926e-10 0.0000000000000000e+00  4.4345199888740208e-06 4.7481675047507942e-10 0.0000000000000000e+00  4.0211760246083577e-06 1.4226430494914903e-21 0.0000000000000000e+00  3.1695363626673708e-20 -3.8752477314881680e-22 0.0000000000000000e+00  1.6479762790461578e-06 -1.6229236661074306e-07 0.0000000000000000e+00  3.2875815085314849e-20 1.0393551956659434e-21 0.0000000000000000e+00  3.7900287485621558e-20 -1.4423689959140743e-21 0.0000000000000000e+00  4.4299007173660314e-06 -1.9844142677928464e-09 0.0000000000000000e+00  4.4144446647694073e-06 -5.3498609328219785e-09 0.0000000000000000e+00  4.4357317605719350e-06 3.0426351580212249e-11 0.0000000000000000e+00  4.4273616604372744e-06 2.7932793788969834e-09 0.0000000000000000e+00  3.1576463086470866e-20 3.2916866594575422e-23 0.0000000000000000e+00  3.6861585363031549e-20 1.1126136848367222e-22 0.0000000000000000e+00  3.1250349978086112e-20 -5.7818284380910815e-22 0.0000000000000000e+00  2.8420726234131041e-20 6.1991279550552865e-22 0.0000000000000000e+00  4.4265394356827288e-06 -7.1268354046591456e-10 0.0000000000000000e+00  4.4270901573120513e-06 1.6771714501582650e-09 0.0000000000000000e+00  4.4260496624586781e-06 -1.4626491378708485e-09 0.0000000000000000e+00  4.0132618068223393e-06 1.1962359593538963e-06 0.0000000000000000e+00  4.4322071122522871e-06 -1.2742011035760000e-09 0.0000000000000000e+00  4.4249700205038026e-06 1.4325949172161817e-09 0.0000000000000000e+00  4.4311184721554457e-06 1.2997421488931324e-09 0.0000000000000000e+00  4.4064727941999771e-06 4.9543603136310331e-09 0.0000000000000000e+00  4.4291030132532310e-06 2.9931134116925319e-10 0.0000000000000000e+00  4.4150892542730848e-06 1.2172004335741456e-09 0.0000000000000000e+00  4.4253917021543029e-06 8.0092810033360758e-10 0.0000000000000000e+00  4.4064280201038796e-06 3.2323168695932378e-10 0.0000000000000000e+00  4.4304870972240464e-06 -4.2522832285010646e-09 0.0000000000000000e+00  4.4172687696313722e-06 2.5925203148440367e-09 0.0000000000000000e+00  4.4131869078434216e-06 -1.6318723252549546e-09 0.0000000000000000e+00  4.4233433407785179e-06 1.8125579558389064e-09 0.0000000000000000e+00  4.4295918920512977e-06 5.5242991028164033e-09 0.0000000000000000e+00  4.3997370482623516e-06 -5.1222463808162666e-09 0.0000000000000000e+00  4.3993560014571112e-06 4.7918660190509914e-09 0.0000000000000000e+00  4.4065733014341305e-06 -6.8327822292728235e-10 0.0000000000000000e+00  4.3975078064410250e-06 -3.2004187319931677e-09 0.0000000000000000e+00  4.4087086439898011e-06 -2.6953639418940396e-09 0.0000000000000000e+00  4.4302132065892014e-06 -1.2060870592931686e-09 0.0000000000000000e+00  4.4327562505612250e-06 -8.1870477412117917e-10 0.0000000000000000e+00  4.4347014146096227e-06 1.0402401478093083e-09 0.0000000000000000e+00  4.4132030369234802e-06 -4.1803921486306324e-09 0.0000000000000000e+00  4.0616893821924597e-06 -2.4915512153424345e-07 0.0000000000000000e+00  4.5369258845806292e-06 -1.3468072375095034e-07 0.0000000000000000e+00  4.4040472490960869e-06 -4.3185440640053757e-08 0.0000000000000000e+00  4.4318115767558153e-06 -1.3517048126118026e-09 0.0000000000000000e+00  4.4341712739861167e-06 -2.9760897443434814e-09 0.0000000000000000e+00  4.4342860052557582e-06 -7.0249182760611532e-10 0.0000000000000000e+00  2.9197692537510194e-21 -1.1679077015004078e-20 0.0000000000000000e+00  4.3400881992100542e-21 9.0538864475228441e-21 0.0000000000000000e+00  4.4319186282848132e-06 2.1337428254363388e-09 0.0000000000000000e+00  4.4309587017591300e-06 -7.0674100629893302e-09 0.0000000000000000e+00  4.4349697259395807e-06 8.6263645552635142e-10 0.0000000000000000e+00  4.4007010298704325e-06 1.9686898442780965e-09 0.0000000000000000e+00  4.4092487238173079e-06 2.3736356936375347e-09 0.0000000000000000e+00  4.4334644082264869e-06 -5.9596853678858563e-08 0.0000000000000000e+00  4.3772339020092349e-06 -2.7511714638257155e-07 0.0000000000000000e+00  4.3187782702367612e-06 4.7285788383123427e-09 0.0000000000000000e+00  4.4031689223413426e-06 3.8420317183856797e-09 0.0000000000000000e+00  4.4042507528562237e-06 -3.7950443455893690e-10 0.0000000000000000e+00  4.2327659403102394e-06 1.8404090360858369e-09 0.0000000000000000e+00  4.4163208198162922e-06 5.8067717752440430e-08 0.0000000000000000e+00  4.4308403904975143e-06 -6.1747802172386807e-10 0.0000000000000000e+00  4.3872671646771616e-06 5.2056477750593190e-09 0.0000000000000000e+00  3.4529133842976841e-08 -5.2169697666198985e-06 0.0000000000000000e+00  4.4315985384541457e-06 2.7384873508642996e-09 0.0000000000000000e+00  4.9947276626208241e-08 4.5176591087467200e-06 0.0000000000000000e+00  -1.8368361033966922e-19 -1.9215253310940704e-19 0.0000000000000000e+00  -3.7158866856828362e-21 2.7117463141319019e-20 0.0000000000000000e+00  1.7663264945444516e-21 3.0103557136420462e-20 0.0000000000000000e+00  1.5344269319319794e-21 -3.0094872110832376e-20 0.0000000000000000e+00  -3.7411461968942611e-21 -3.3254632861282323e-20 0.0000000000000000e+00  -2.0884336127131101e-19 1.6105012214700530e-19 0.0000000000000000e+00  4.4168580478982352e-06 -3.0673574437330692e-09 0.0000000000000000e+00  4.2600756152286526e-06 -2.8065639954010796e-09 0.0000000000000000e+00  4.2605965587852401e-06 -1.0240993094146415e-08 0.0000000000000000e+00  4.2559908259796373e-06 1.4959941913763979e-09 0.0000000000000000e+00  4.2581706956354605e-06 -5.8675328068607290e-10 0.0000000000000000e+00  4.2545722294841639e-06 4.6897822652684838e-09 0.0000000000000000e+00  4.3940091402842493e-06 5.8196269172354516e-09 0.0000000000000000e+00  4.4129871903262452e-06 6.4229424127422014e-08 0.0000000000000000e+00  4.3954202697342946e-06 -7.6594915667347022e-10 0.0000000000000000e+00  4.4260824626083407e-06 -2.5265218230119246e-09 0.0000000000000000e+00  4.4325883227881298e-06 1.2465130188148159e-09 0.0000000000000000e+00  4.4340256460775657e-06 -9.7578748031013022e-10 0.0000000000000000e+00  -8.0227771302823158e-07 6.5488808979410457e-06 0.0000000000000000e+00  -1.6394074346128078e-06 -6.8211999133947284e-06 0.0000000000000000e+00  4.2683898310158562e-06 -1.4528876074415452e-08 0.0000000000000000e+00  4.3864339070032402e-06 5.4859269923515814e-09 0.0000000000000000e+00  4.4345189908524719e-06 -8.9042755994899696e-10 0.0000000000000000e+00  4.4335654399115666e-06 -1.0123548346529943e-09 0.0000000000000000e+00  3.1278772872898611e-20 3.5990031343899798e-22 0.0000000000000000e+00  3.9215491750836528e-06 2.8537652535160822e-07 0.0000000000000000e+00  1.8218927570141075e-05 2.1323500746618167e-05 0.0000000000000000e+00  1.8501302779184413e-05 -2.2744344506563994e-05 0.0000000000000000e+00  4.4361609948672717e-06 -7.1282466069269345e-10 0.0000000000000000e+00  4.2240713086916156e-06 4.2554696428768565e-09 0.0000000000000000e+00  3.1063851159820764e-20 8.8184386082390761e-23 0.0000000000000000e+00  4.2431917007683735e-06 -6.8271713704085232e-09 0.0000000000000000e+00  4.4362023782601110e-06 7.8263263614039955e-10 0.0000000000000000e+00  4.3756589912759958e-06 3.5214713386958183e-07 0.0000000000000000e+00  4.4285849693757636e-06 1.8133838834116849e-10 0.0000000000000000e+00  3.2394602827032503e-20 -3.1099116195091500e-22 0.0000000000000000e+00  4.4338498194339403e-06 1.7803093155389034e-09 0.0000000000000000e+00  4.4321481724863648e-06 -1.9764414249083830e-09 0.0000000000000000e+00  4.3956574172202965e-06 -1.4995584261409820e-09 0.0000000000000000e+00  4.4075517592026670e-06 8.4047590425504903e-10 0.0000000000000000e+00  4.3966412448293830e-06 -3.3319276688615876e-09 0.0000000000000000e+00  3.0817800897552227e-20 2.5911617432870375e-22 0.0000000000000000e+00  4.4101392873604771e-06 -1.2829103655675089e-09 0.0000000000000000e+00  4.4343106850224503e-06 3.5303679596720801e-09 0.0000000000000000e+00  4.2656384615807359e-06 1.0007301381640701e-08 0.0000000000000000e+00  4.4336099484749672e-06 -1.9170584690506230e-10 0.0000000000000000e+00  4.4342210733621459e-06 -2.1939539874833570e-08 0.0000000000000000e+00  4.4303027661168455e-06 6.1270666525168209e-10 0.0000000000000000e+00  4.4308684375914729e-06 -1.0411516450047628e-09 0.0000000000000000e+00  4.2764908219562554e-06 -6.6999870865341693e-08 0.0000000000000000e+00  4.4072281529988776e-06 2.6875059868787031e-09 0.0000000000000000e+00  4.4054984153416680e-06 -3.9440298041930819e-09 0.0000000000000000e+00  4.4010951803704651e-06 -2.8500778384562912e-09 0.0000000000000000e+00  4.4088117179756203e-06 -7.1683858066150318e-09 0.0000000000000000e+00  4.4300100408098227e-06 1.3698292508061264e-09 0.0000000000000000e+00  3.2216497774278941e-20 -3.8141868750367021e-22 0.0000000000000000e+00  4.1015603422443726e-06 -2.3719333490910593e-06 0.0000000000000000e+00  2.4222595214691810e-06 -4.4650678266466959e-06 0.0000000000000000e+00  1.0328509317061412e-06 -3.3562138482336811e-06 0.0000000000000000e+00  3.1699348415387845e-06 -1.1357837738112243e-06 0.0000000000000000e+00  4.4349698699453639e-06 2.3141851215395331e-10 0.0000000000000000e+00  4.4313370037569094e-06 -2.3384735903179535e-09 0.0000000000000000e+00  4.4307887852167586e-06 3.7656076060345531e-10 0.0000000000000000e+00  4.4306894107734522e-06 -8.4721422196539219e-10 0.0000000000000000e+00  4.4248524577189967e-06 -9.4783841819783523e-09 0.0000000000000000e+00  4.4047155556072160e-06 9.8130350958253811e-09 0.0000000000000000e+00  3.6833357959560044e-20 6.2201529032417517e-23 0.0000000000000000e+00  4.4015598224681209e-06 6.1438263957397572e-09 0.0000000000000000e+00  4.4308406159569156e-06 -1.3123972567374356e-09 0.0000000000000000e+00  4.4307119889410075e-06 2.1027895732605519e-11 0.0000000000000000e+00  4.4005348028331919e-06 3.9492530556538687e-09 0.0000000