<?xml version="1.0"?>
<VTKFile type="UnstructuredGrid"  version="0.1"  >
<UnstructuredGrid>
<Piece  NumberOfPoints="1079" NumberOfCells="1944">
<Points>
<DataArray  type="Float64"  NumberOfComponents="3"  format="ascii">0.08500000000000001 0.02 0  0.005 0.02 0  0.005 0.03 0  0 0.03 0  0 0 0  0.005 0 0  0.005 0.01 0  0.08500000000000001 0.01 0  0 0.015 0  0 0.0075 0  0 0.0225 0  0.04500000000000001 0.02 0  0.04500000000000001 0.01 0  0.025 0.01 0  0.025 0.02 0  0.065 0.02 0  0.065 0.01 0  0.035 0.02 0  0.035 0.01 0  0.07500000000000001 0.02 0  0.07500000000000001 0.01 0  0.015 0.02 0  0.015 0.01 0  0.05500000000000001 0.01 0  0.05500000000000001 0.02 0  0.07000000000000001 0.01 0  0.07000000000000001 0.02 0  0.05 0.01 0  0.03 0.01 0  0.03 0.02 0  0.04000000000000001 0.01 0  0.01 0.01 0  0.02 0.02 0  0.06 0.015 0  0.08500000000000001 0.015 0  0.05 0.02 0  0.07250000000000001 0.015 0  0.04000000000000001 0.02 0  0.03750000000000001 0.015 0  0.0525 0.015 0  0.02 0.01 0  0.01 0.02 0  0.0275 0.015 0  0.0125 0.015 0  0.08000000000000002 0.01 0  0.08000000000000002 0.02 0  0.0325 0.014375 0  0.04291666666666667 0.015 0  0.065 0.015 0  0.005 0.005 0  0.005 0.015 0  0.02208333333333334 0.015 0  0.07791666666666668 0.015 0  0.005 0.025 0  0.06 0.01 0  0.06 0.02 0  0.01729166666666667 0.01572916666666667 0  0.04770833333333334 0.01427083333333334 0  0.06875000000000001 0.01625 0  0.008750000000000001 0.01625 0  0.05625000000000001 0.01625 0  0 0.00375 0  0 0.01875 0  0 0.01125 0  0 0.02625 0  0.08145833333333334 0.01354166666666667 0  0.0675 0.01 0  0.0075 0.0125 0  0.0625 0.0175 0  0.0575 0.0125 0  0.0625 0.0125 0  0.08207465277777778 0.01707465277777778 0  0.06767857142857144 0.01321428571428571 0  0.0175 0.01 0  0.01875 0.01291382575757576 0  0.0475 0.02 0  0.04564168086314595 0.01679860519591141 0  0.00296875 0.0125 0  0.0025 0.03 0  0.0025 0 0  0.00296875 0.0175 0  0.01521990740740741 0.0132349537037037 0  0.0497800925925926 0.0167650462962963 0  0.0325 0.02 0  0.03474264705882353 0.01674632352941176 0  0.03750000000000001 0.02 0  0.03025735294117647 0.01674632352941176 0  0.0275 0.02 0  0.0525 0.02 0  0.0125 0.01 0  0.04020833333333334 0.01322916666666667 0  0.03750000000000001 0.01 0  0.0225 0.02 0  0.02479166666666667 0.01677083333333333 0  0.07520833333333335 0.01322916666666667 0  0.07250000000000001 0.01 0  0.07520833333333335 0.01677083333333334 0  0.07250000000000001 0.02 0  0.04020833333333334 0.01677083333333333 0  0.0225 0.01 0  0.02375 0.01262152777777778 0  0.04250000000000001 0.02 0  0.04250000000000001 0.01 0  0.07750000000000001 0.01 0  0.07750000000000001 0.02 0  0.05036151960784314 0.01294424019607843 0  0.0705560064935065 0.01284699675324675 0  0.05458333333333334 0.01291666666666666 0  0.0021875 0.024375 0  0.005 0.0275 0  0.01125 0.0175 0  0.01463848039215686 0.01705575980392157 0  0.01 0.01375 0  0.03625 0.0125 0  0.0021875 0.009375 0  0.05375000000000001 0.0175 0  0.07125000000000001 0.0175 0  0.005 0.0025 0  0.0021875 0.005625 0  0.02655220103578155 0.01234889948210923 0  0.002187499999999999 0.020625 0  0.02979166666666667 0.01302083333333333 0  0.0525 0.01 0  0.07895833333333334 0.0125 0  0.01994277885235332 0.01704213007736944 0  0.07934656179076068 0.01733823814273861 0  0.04505722114764669 0.01295786992263056 0  0.06625 0.0175 0  0.006250000000000001 0.0175 0  0.05750000000000001 0.02 0  0.05875000000000001 0.0175 0  0.005 0.0225 0  0.005 0.0075 0  0.002375 0.027375 0  0.002375 0.002625000000000001 0  0.0475 0.01 0  0.0175 0.02 0  0.0325 0.01 0  0.03375 0.0121875 0  0.04261299435028249 0.01749205508474576 0  0.08500000000000001 0.0125 0  0.08250000000000002 0.01 0  0.02121963399965531 0.01224824108143494 0  0.0675 0.02 0  0.0125 0.02 0  0.02720152243589744 0.0175 0  0.03715165441176471 0.0175 0  0.08500000000000001 0.0175 0  0.0275 0.01 0  0.0025 0.0149560546875 0  0.0075 0.01 0  0.0075 0.02 0  0.06526785714285716 0.0125 0  0.01281031447005516 0.0125 0  0.0625 0.015 0  0.06 0.0125 0  0.05750000000000001 0.01 0  0.0625 0.02 0  0.0625 0.01 0  0.08250000000000002 0.02 0  0.04260103740101855 0.01252623201412851 0  0.02240052247582197 0.01750164767101344 0  0.07293583459427785 0.01238479732953041 0  0.005234374999999999 0.012265625 0  0.03528131980640358 0.01454684009679821 0  0.0325 0.01760027210036557 0  0.02532593822924343 0.01428227733767297 0  0.08009952069819683 0.01527145502895417 0  0.01987282359856536 0.01482587683689801 0  0.04828232595121382 0.01210233572595705 0  0.01671767404878618 0.01789766427404295 0  0.05125 0.01829007549029352 0  0.05247215456215357 0.01288882122882024 0  0.07338729919678716 0.01799385040160642 0  0.03838729919678716 0.01200614959839357 0  0.07717482110586968 0.01780301674207099 0  0.04771860040890012 0.01773306039388322 0  0.03125 0.01160380747126437 0  0.06875000000000001 0.01154265873015873 0  0.07625000000000001 0.01154065860215054 0  0.01625 0.01153997817696946 0  0.068125 0.018125 0  0.05437500000000001 0.015625 0  0.066875 0.015625 0  0.07039794950204951 0.01494384850614853 0  0.05687500000000001 0.018125 0  0.006875 0.015625 0  0.008749999999999999 0.01833333333333333 0  0.010625 0.015625 0  0.05625 0.01416666666666667 0  0.05812500000000001 0.015625 0  0.0449088595298192 0.01494528408816316 0  0 0.016875 0  0 0.013125 0  0.04962452342047931 0.01478673066448802 0  0.0153754765795207 0.01521326933551198 0  0.0771774565913315 0.01322498191305479 0  0.01857756431135545 0.01840228599899994 0  0.04642243568864456 0.01159771400100006 0  0.08125000000000002 0.01155637254901961 0  0.08317650804863432 0.0118234919513657 0  0.08288217288011697 0.01511353252923977 0  0.02837253504384828 0.0117177464035174 0  0.03896057962520807 0.01831163685754031 0  0.01125 0.0114244162490927 0  0.00935910490099115 0.0119067901980177 0  0.02946078431372549 0.01495404411764706 0  0.02875 0.0185829434466942 0  0.002968749999999999 0.0225 0  0.064375 0.016875 0  0.00296875 0.0075 0  0 0.001875 0  0 0.005625 0  0 0.009375 0  0 0.020625 0  0 0.024375 0  0 0.028125 0  0.06062500000000001 0.01812500000000001 0  0.008303571428571429 0.01446428571428572 0  0.01375 0.01865917058160413 0  0.05137790313978056 0.01143372888932909 0  0.04125000000000001 0.01131513063942604 0  0.04101690263896279 0.01844430285842771 0  0.02399563533148224 0.01844349395710867 0  0.08125000000000002 0.01868815426145731 0  0.05354684380692146 0.01145463537600848 0  0.01699195823639423 0.01315138909884649 0  0.07598357371794873 0.015 0  0.04098357371794872 0.015 0  0.003744047619047619 0.00375 0  0.003344630281690141 0.02580853873239437 0  0.04625 0.0187354532243972 0  0.06388392857142858 0.01138392857142858 0  0.06375 0.01375 0  0.05875 0.01375 0  0.06375 0.02 0  0.00622802734375 0.01372802734375 0  0.003630681818181818 0.001369318181818182 0  0.003630681818181818 0.02863068181818182 0  0.06125 0.01625 0  0.06125 0.01125 0  0.05625000000000001 0.01 0  0.05875 0.01125 0  0.06125 0.01375 0  0.08337864763241221 0.0183786476324122 0  0.05213634138653413 0.01674432930673294 0  0.04375000000000001 0.01 0  0.07424178685897437 0.01529258578431373 0  0.03924178685897436 0.01529258578431372 0  0.03410139294454583 0.01843406022904556 0  0.03089860705545417 0.01843406022904556 0  0.02094160484316717 0.01850229584291991 0  0.04375000000000001 0.02 0  0.04437042160883325 0.01820701498672512 0  0.04816311705429156 0.01600061344661149 0  0.07151224904251052 0.0114127410511319 0  0.04395528506193162 0.01639387970349481 0  0.0128750358694518 0.0167500179347259 0  0.02855808448399799 0.01642839899839741 0  0.02812690373330794 0.01340955081400569 0  0.08358500641945087 0.01351822349116885 0  0.05590277777777778 0.01173611111111111 0  0.06683110430364615 0.01164926404662283 0  0.02573206694914602 0.01842532451809762 0  0.01438126661842046 0.01166701193099454 0  0.02384283211216029 0.01526549696571563 0  0.03625 0.02 0  0.004609375000000001 0.0182421875 0  0.003398437500000001 0.01943359375 0  0.001728307845744682 0.01894718251329787 0  0.004377805359085963 0.01656966216675735 0  0.04649673309852075 0.0153889662370871 0  0.03615513600614297 0.01592654988586041 0  0.03316985071935832 0.01598763605018279 0  0.03110111603888768 0.01529816275177977 0  0.01370614113484869 0.0138804542047638 0  0.04930041102671841 0.01842260568883502 0  0.07875000000000001 0.02 0  0.0745395359848485 0.01165101111925709 0  0.03860755698543604 0.01373741558556884 0  0.02605038706571737 0.01573944002207753 0  0.07559826163500957 0.01841729376139847 0  0.04437500000000001 0.01149157931286774 0  0.06874116707361365 0.01454618473032123 0  0.003761917372881356 0.0239307468220339 0  0.003984374999999999 0.01125 0  0.003768503289473684 0.01392539576480263 0  0.001796875 0.0111328125 0  0.003761917372881356 0.008930746822033899 0  0.005 0.00625 0  0.003761917372881355 0.0210692531779661 0  0.06633928571428571 0.01410714285714285 0  0.006484375 0.01125 0  0.08364120589325512 0.01657288979763549 0  0.03576267476503373 0.0184116442851204 0  0.07370875846579374 0.0137848203678562 0  0.06964285714285715 0.01758928571428571 0  0.05520833333333334 0.01833333333333333 0  0.06491071428571429 0.01839285714285714 0  0.0510098951944636 0.01559941474766356 0  0.01786087179886325 0.0115702210443714 0  0.01972197383235524 0.01160576093166696 0  0.01804697593127788 0.01433503795474974 0  0.001644074528704677 0.01642892723865279 0  0.00125 0.03 0  0.001497685185185185 0.001267746913580247 0  0.07315451164202422 0.01643443118912983 0  0.001233906745910645 0.0140625 0  0.01162635071030191 0.01362229857939618 0  0.01528023503083844 0.01845923557506155 0  0.06625 0.02 0  0.07695012019230771 0.01624387078484555 0  0.03139091092855769 0.01320776147621796 0  0.03857339107781042 0.01675295051810485 0  0.001754993120977522 0.02590789105493891 0  0.002288757784711197 0.00412546923654445 0  0.07914382119690884 0.01404430049871201 0  0.001391810103286306 0.01257390899021902 0  0.0419501201923077 0.01614675005432421 0  0.001484375 0.007018229166666667 0  0.001484375 0.02201822916666666 0  0.048
[...]
<PointData  Vectors="velocity"> 
<DataArray  type="Float64"  Name="velocity"  NumberOfComponents="3" format="ascii">5.3993956365919117e-07 3.8185977540561264e-21 0.0000000000000000e+00  1.1120265821289296e-20 -1.3156370830821138e-20 0.0000000000000000e+00  4.7304391280376395e-19 -2.6560877829467021e-05 0.0000000000000000e+00  -5.5834691347329551e-19 -2.6560877829466980e-05 0.0000000000000000e+00  -5.4800715581638315e-19 2.6560877829466994e-05 0.0000000000000000e+00  4.9630836753181882e-19 2.6560877829466953e-05 0.0000000000000000e+00  1.0487922244891379e-20 1.0209325774989730e-20 0.0000000000000000e+00  5.5453434907610562e-07 -4.1010137630132287e-21 0.0000000000000000e+00  1.2501344955333786e-21 -9.0366413976371122e-23 0.0000000000000000e+00  -1.3885254977589714e-22 1.0084038492078544e-20 0.0000000000000000e+00  5.3227788031702056e-23 -1.1467018125420242e-20 0.0000000000000000e+00  1.0631989211258676e-20 -3.4407356877416497e-23 0.0000000000000000e+00  9.0865265106475410e-21 5.4640279961556540e-23 0.0000000000000000e+00  1.0426349921675521e-20 3.2667193358114223e-23 0.0000000000000000e+00  8.6124429830584668e-21 -3.5534267488119447e-23 0.0000000000000000e+00  9.6195180088495666e-21 3.1672870834721776e-23 0.0000000000000000e+00  1.0351587480321308e-20 1.3086263753466845e-23 0.0000000000000000e+00  8.3990744010652222e-21 -1.8271111094754184e-23 0.0000000000000000e+00  1.1139346060508801e-20 -6.9564844494591968e-24 0.0000000000000000e+00  9.9254435533997926e-21 6.4644707157794015e-23 0.0000000000000000e+00  9.5204185417015343e-21 3.6942849266743329e-23 0.0000000000000000e+00  8.4676303399424991e-21 -2.2995089883994104e-23 0.0000000000000000e+00  8.4379058268351907e-21 -1.6853442442425999e-23 0.0000000000000000e+00  1.0145985265570275e-20 -1.1653172196034400e-22 0.0000000000000000e+00  9.3682650744834546e-21 4.2505920640368507e-23 0.0000000000000000e+00  9.2493902030684697e-21 1.4310484229624930e-23 0.0000000000000000e+00  1.1482584122063595e-20 -4.0488742604392035e-23 0.0000000000000000e+00  9.8432338603341795e-21 3.3503961570864043e-23 0.0000000000000000e+00  1.0287607348950415e-20 4.4085870100328124e-24 0.0000000000000000e+00  8.1933608892620329e-21 -2.2778638064900895e-23 0.0000000000000000e+00  8.9423553880130393e-21 3.1550022444840068e-23 0.0000000000000000e+00  9.8926269960401910e-21 5.2942193403884813e-23 0.0000000000000000e+00  8.7847547331605325e-21 -1.8571469144161060e-23 0.0000000000000000e+00  1.3776975168321748e-06 -2.0145600285567704e-10 0.0000000000000000e+00  1.3231828765221300e-06 2.6890078348572352e-24 0.0000000000000000e+00  9.2283369581288377e-21 4.7875282047406341e-24 0.0000000000000000e+00  1.3776721729834989e-06 4.6444946933781819e-10 0.0000000000000000e+00  9.3768025083121146e-21 -9.2229528779551743e-23 0.0000000000000000e+00  1.3765253231363896e-06 -6.7009263990051394e-10 0.0000000000000000e+00  1.3762624811796513e-06 -7.4936958290004835e-11 0.0000000000000000e+00  9.1193069953292063e-21 3.3287612028772945e-24 0.0000000000000000e+00  1.0099814082186511e-20 -1.9847219007364214e-22 0.0000000000000000e+00  1.3764400116900670e-06 -3.6224380590904310e-11 0.0000000000000000e+00  1.3735692584944616e-06 -5.4009900931237468e-09 0.0000000000000000e+00  8.5667878888230158e-21 -3.3896739525077602e-23 0.0000000000000000e+00  9.5010116942490284e-21 1.7606415404665074e-22 0.0000000000000000e+00  1.3761213502391273e-06 4.0267994976756916e-11 0.0000000000000000e+00  1.3775163840984655e-06 -1.3433344748513346e-10 0.0000000000000000e+00  1.3771450144155035e-06 -1.1588400446542217e-10 0.0000000000000000e+00  -7.3085581282519476e-22 1.2091776171337689e-20 0.0000000000000000e+00  1.0406601820631351e-06 -5.4902589067747770e-08 0.0000000000000000e+00  1.3759054418715655e-06 3.3379412227188189e-10 0.0000000000000000e+00  1.3755470583602637e-06 7.0812256767440448e-11 0.0000000000000000e+00  -1.1003230583369719e-21 -1.4572959487507833e-20 0.0000000000000000e+00  8.8857292364095582e-21 1.5619445923376178e-23 0.0000000000000000e+00  1.0719202781048829e-20 1.2321149200924185e-22 0.0000000000000000e+00  1.3765578890949896e-06 -5.0102570832888247e-10 0.0000000000000000e+00  1.3769931479017268e-06 3.6414285020423464e-10 0.0000000000000000e+00  1.3771552969746839e-06 -3.5139131433001206e-10 0.0000000000000000e+00  1.3560610230053954e-06 -4.3991384745229060e-08 0.0000000000000000e+00  1.3761759595070043e-06 -1.0352219902894094e-09 0.0000000000000000e+00  -6.2515425175513333e-21 1.7409663044355494e-21 0.0000000000000000e+00  5.8126610253630502e-22 -5.3798413428590940e-21 0.0000000000000000e+00  7.8744377285961654e-22 5.8495823126714375e-21 0.0000000000000000e+00  -7.3292033501579132e-21 1.6982300445487847e-21 0.0000000000000000e+00  1.3629041187520776e-06 -1.3164965247627832e-08 0.0000000000000000e+00  8.3459449832660207e-21 -2.3983368412145405e-23 0.0000000000000000e+00  1.3570886532962366e-06 7.7958960308698885e-08 0.0000000000000000e+00  1.3745897270363615e-06 3.7920197084759550e-11 0.0000000000000000e+00  1.3752046440172931e-06 1.1652751131525239e-10 0.0000000000000000e+00  1.3764369088424131e-06 -5.9032943190194187e-10 0.0000000000000000e+00  1.3614188707484108e-06 2.5173486122143970e-08 0.0000000000000000e+00  1.3762855363839354e-06 -2.7894990342619722e-10 0.0000000000000000e+00  9.3750127366594063e-21 -1.7443651913982985e-24 0.0000000000000000e+00  1.3751740442987145e-06 -2.9532972324940711e-11 0.0000000000000000e+00  1.1723338310407149e-20 1.6167096403169904e-22 0.0000000000000000e+00  1.3775142682050015e-06 -1.0496227964166457e-09 0.0000000000000000e+00  6.5822208894552062e-07 5.3619786178786359e-07 0.0000000000000000e+00  -3.0237424542850130e-20 -2.6560877829467102e-05 0.0000000000000000e+00  -4.5788724402996769e-20 2.6560877829467112e-05 0.0000000000000000e+00  6.8201396831107015e-07 -6.7144962074381282e-07 0.0000000000000000e+00  1.3746298749993313e-06 -1.9525794944879519e-09 0.0000000000000000e+00  1.3758422056702535e-06 1.2366965656439522e-09 0.0000000000000000e+00  9.2410830537189831e-21 8.2115750676455302e-23 0.0000000000000000e+00  1.3757238806889872e-06 -4.2434555329804336e-10 0.0000000000000000e+00  1.0024847367910586e-20 6.0402644661887702e-23 0.0000000000000000e+00  1.3759893528388271e-06 -4.3742147382646437e-10 0.0000000000000000e+00  1.0775219189032202e-20 2.1871530677204757e-23 0.0000000000000000e+00  9.3403812272947144e-21 -1.0196046126173885e-24 0.0000000000000000e+00  1.0246046126873707e-20 5.6501200170057286e-23 0.0000000000000000e+00  1.3764336315459995e-06 4.2584097997728580e-10 0.0000000000000000e+00  9.4067055816052110e-21 3.2776795387666225e-23 0.0000000000000000e+00  1.0095910627858893e-20 2.8055169933686975e-23 0.0000000000000000e+00  1.3755667178884127e-06 1.0462777701460985e-10 0.0000000000000000e+00  1.3769060781396191e-06 2.1926340939470947e-10 0.0000000000000000e+00  9.8982184230669647e-21 5.1158695432372066e-24 0.0000000000000000e+00  1.3766423519535347e-06 9.4461499958344637e-10 0.0000000000000000e+00  1.0609322364417802e-20 1.1401198813122410e-22 0.0000000000000000e+00  1.3772791731408081e-06 -1.7482122219729044e-09 0.0000000000000000e+00  8.5658243385221378e-21 1.9811990914550585e-24 0.0000000000000000e+00  1.3743758456331085e-06 9.2607177171117645e-10 0.0000000000000000e+00  9.9536116296178010e-21 -3.6680467385089185e-25 0.0000000000000000e+00  9.5009151965133573e-21 9.3348034876316266e-23 0.0000000000000000e+00  1.0029726154895307e-20 1.6797835908674063e-22 0.0000000000000000e+00  1.0526774487955683e-20 -6.4531871713814383e-23 0.0000000000000000e+00  1.3767285431727119e-06 1.0429874762788487e-09 0.0000000000000000e+00  1.3770502668929948e-06 1.6280351222779252e-09 0.0000000000000000e+00  1.3766487128574953e-06 1.6974288957654311e-10 0.0000000000000000e+00  -2.9055335915497444e-07 -1.5138964971444620e-06 0.0000000000000000e+00  1.9036715637754676e-21 -2.0949801186902502e-20 0.0000000000000000e+00  1.3816378770052598e-06 -1.1747308538452996e-08 0.0000000000000000e+00  1.3786334466990567e-06 -3.8686499763690884e-09 0.0000000000000000e+00  1.3602530064895905e-06 3.2489300149096682e-09 0.0000000000000000e+00  1.3733662550043727e-06 -1.4744626242998839e-09 0.0000000000000000e+00  2.3074660335142797e-07 1.2284853598985536e-06 0.0000000000000000e+00  1.3745656840513664e-06 -2.4901003351813359e-12 0.0000000000000000e+00  1.3774872090814922e-06 -1.4750244097282369e-12 0.0000000000000000e+00  3.6838737852895214e-21 1.1436214876460181e-20 0.0000000000000000e+00  -2.5595402307720006e-07 1.3056972990366152e-06 0.0000000000000000e+00  1.3743744874374459e-06 -9.4178346253377905e-10 0.0000000000000000e+00  2.3001307332127574e-07 -1.4186659240993164e-06 0.0000000000000000e+00  1.3767433047498914e-06 -2.2951975127836762e-10 0.0000000000000000e+00  8.9719221108536071e-21 -7.6286988120359062e-23 0.0000000000000000e+00  1.3740686802752741e-06 -4.1949565453704354e-09 0.0000000000000000e+00  1.3753899178797157e-06 5.9035679738002578e-12 0.0000000000000000e+00  1.3747833051503162e-06 6.3452939016239211e-09 0.0000000000000000e+00  1.3770824433862437e-06 -3.0659347120646761e-10 0.0000000000000000e+00  1.3764883529417526e-06 -1.6258597347133881e-09 0.0000000000000000e+00  1.3744429061625737e-06 -2.5380434799639535e-07 0.0000000000000000e+00  9.8209011665494547e-21 -1.3465559586707887e-22 0.0000000000000000e+00  1.3739854891265853e-06 -4.9116946724594422e-10 0.0000000000000000e+00  1.1765845146164371e-22 -1.2848208204680740e-20 0.0000000000000000e+00  1.0426768104073677e-22 1.1417767461884941e-20 0.0000000000000000e+00  -3.1781469907394522e-06 -3.4668038382539504e-06 0.0000000000000000e+00  -2.5821913645696589e-06 2.8448087546447556e-06 0.0000000000000000e+00  9.3625824392306065e-21 2.5962022099525458e-24 0.0000000000000000e+00  1.0771900193451016e-20 1.5539779884864312e-22 0.0000000000000000e+00  9.0530620289019792e-21 1.3662432094229513e-23 0.0000000000000000e+00  1.3740501315277250e-06 1.6751546902177277e-09 0.0000000000000000e+00  1.3746249843084178e-06 1.0100019545410667e-09 0.0000000000000000e+00  1.2504831605707230e-06 -3.2761818382286049e-22 0.0000000000000000e+00  9.0545481813713346e-21 -3.4024298018687401e-22 0.0000000000000000e+00  1.3745972011384857e-06 3.8526573956857930e-10 0.0000000000000000e+00  9.7371639922997299e-21 6.5984804869625055e-23 0.0000000000000000e+00  9.0767822344370287e-21 -2.0491784987441010e-23 0.0000000000000000e+00  1.3759523133984525e-06 -1.7574353755808333e-10 0.0000000000000000e+00  1.3774458771161625e-06 1.4773597604024647e-10 0.0000000000000000e+00  1.2490549087890869e-06 4.3008245120272733e-22 0.0000000000000000e+00  9.8689648814714701e-21 -1.2177877443963037e-22 0.0000000000000000e+00  5.1188791737078362e-07 -5.1058616696363876e-08 0.0000000000000000e+00  1.0355881751874177e-20 3.2019674067468105e-22 0.0000000000000000e+00  1.1852705590141838e-20 -4.5454658459961504e-22 0.0000000000000000e+00  1.3760113068193568e-06 -6.1620846258617682e-10 0.0000000000000000e+00  1.3711775823452579e-06 -1.6908600495465912e-09 0.0000000000000000e+00  1.3778225039735618e-06 9.4665864012132553e-12 0.0000000000000000e+00  1.3752223481272840e-06 8.6803890262089033e-10 0.0000000000000000e+00  9.7555331302175419e-21 9.0555532376499102e-24 0.0000000000000000e+00  1.1324392518244767e-20 2.8184720909646545e-23 0.0000000000000000e+00  9.1347864072593048e-21 -1.8792338326364363e-22 0.0000000000000000e+00  8.8300184705939964e-21 2.1967829680836405e-22 0.0000000000000000e+00  1.3749679709423113e-06 -2.2106630640128581e-10 0.0000000000000000e+00  1.3751396213462997e-06 5.1950715050202431e-10 0.0000000000000000e+00  1.3748155052497976e-06 -4.5393464816612888e-10 0.0000000000000000e+00  1.2462786898452679e-06 3.7112662390683484e-07 0.0000000000000000e+00  1.3767276235024521e-06 -3.9578154854200528e-10 0.0000000000000000e+00  1.3744792760415977e-06 4.4460849594728392e-10 0.0000000000000000e+00  1.3763893051523663e-06 4.0309639650355069e-10 0.0000000000000000e+00  1.3687351458836492e-06 1.5388132945314225e-09 0.0000000000000000e+00  1.3757633317956239e-06 8.8713781389914951e-11 0.0000000000000000e+00  1.3714102048527626e-06 3.7828388279344872e-10 0.0000000000000000e+00  1.3746205210748410e-06 2.4110875618219949e-10 0.0000000000000000e+00  1.3687198339411251e-06 1.0021111255840812e-10 0.0000000000000000e+00  1.3761933091226775e-06 -1.3208755534622653e-09 0.0000000000000000e+00  1.3720871459960661e-06 8.0461045265874845e-10 0.0000000000000000e+00  1.3708193172792693e-06 -5.0673059134828228e-10 0.0000000000000000e+00  1.3739740104729180e-06 5.6241587296512384e-10 0.0000000000000000e+00  1.3759151015942574e-06 1.7152970953927382e-09 0.0000000000000000e+00  1.3666415079493438e-06 -1.5910774859943215e-09 0.0000000000000000e+00  1.3665238762983029e-06 1.4886892795499321e-09 0.0000000000000000e+00  1.3687655384724513e-06 -2.1262455543079508e-10 0.0000000000000000e+00  1.3659364436505701e-06 -9.9965671458377325e-10 0.0000000000000000e+00  1.3694282162157719e-06 -8.3761348002569239e-10 0.0000000000000000e+00  1.3761082722717235e-06 -3.7458582158593197e-10 0.0000000000000000e+00  1.3768981953126731e-06 -2.5427778428475428e-10 0.0000000000000000e+00  1.3775024052019359e-06 3.2308292070840023e-10 0.0000000000000000e+00  1.3708252820916834e-06 -1.2983688574786224e-09 0.0000000000000000e+00  1.2616837705182731e-06 -7.7689727335175058e-08 0.0000000000000000e+00  1.4094133735647471e-06 -4.1920615503837466e-08 0.0000000000000000e+00  1.3679977221223311e-06 -1.3505897010792942e-08 0.0000000000000000e+00  1.3766047421713102e-06 -4.1984118976488037e-10 0.0000000000000000e+00  1.3773376876361659e-06 -9.2443279493704920e-10 0.0000000000000000e+00  1.3773733759159732e-06 -2.1823840671560368e-10 0.0000000000000000e+00  8.7687875315574451e-22 -3.4506363907966592e-21 0.0000000000000000e+00  1.3348871652400139e-21 2.8449567721583950e-21 0.0000000000000000e+00  1.3766380861213478e-06 6.6280021531615076e-10 0.0000000000000000e+00  1.3763411821041479e-06 -2.2140607655939108e-09 0.0000000000000000e+00  1.3775859527821382e-06 2.6815971833622316e-10 0.0000000000000000e+00  1.3669474808549526e-06 6.0889836984453845e-10 0.0000000000000000e+00  1.3695960498839464e-06 7.3782878939461289e-10 0.0000000000000000e+00  1.3771183290154137e-06 -1.8509879162745982e-08 0.0000000000000000e+00  1.3596562125564304e-06 -8.5453855908456159e-08 0.0000000000000000e+00  1.3414987210449494e-06 1.4685528084107234e-09 0.0000000000000000e+00  1.3677069074993117e-06 1.1934561968358732e-09 0.0000000000000000e+00  1.3680436638406971e-06 -1.1749067904817139e-10 0.0000000000000000e+00  1.3147102505753105e-06 5.4769848260363673e-10 0.0000000000000000e+00  1.3716696111970714e-06 1.7966229448030805e-08 0.0000000000000000e+00  1.3763031185058927e-06 -1.9198849211117562e-10 0.0000000000000000e+00  1.3627682611034853e-06 1.6166719681551809e-09 0.0000000000000000e+00  1.0327802623927908e-08 -1.6216854884824818e-06 0.0000000000000000e+00  1.3765387665833926e-06 8.5052597225258093e-10 0.0000000000000000e+00  1.5182331355260523e-08 1.4023210354874197e-06 0.0000000000000000e+00  -5.8935793666177709e-20 -5.9940584092993669e-20 0.0000000000000000e+00  -1.0849821811249501e-21 7.9423532213068255e-21 0.0000000000000000e+00  5.6795373137963587e-22 9.2312356672047150e-21 0.0000000000000000e+00  4.8808967667177352e-22 -9.7148442084276103e-21 0.0000000000000000e+00  -1.1106527772029839e-21 -9.8724691306931903e-21 0.0000000000000000e+00  -6.9199842110411111e-20 5.0786363617360925e-20 0.0000000000000000e+00  1.3719598640242303e-06 -9.5283986565330116e-10 0.0000000000000000e+00  1.3232238709395690e-06 -1.0620535258102511e-09 0.0000000000000000e+00  1.3234529209621208e-06 -3.1944428984794175e-09 0.0000000000000000e+00  1.3219910414104260e-06 4.6778650506656502e-10 0.0000000000000000e+00  1.3226683789360461e-06 -1.8108686425052374e-10 0.0000000000000000e+00  1.3215522156581634e-06 1.4537157414804507e-09 0.0000000000000000e+00  1.3648642062976609e-06 1.8072446557372967e-09 0.0000000000000000e+00  1.3707565841292834e-06 1.9949959111375777e-08 0.0000000000000000e+00  1.3653012294924565e-06 -2.3894757697625964e-10 0.0000000000000000e+00  1.3748188868669182e-06 -7.9398353237639652e-10 0.0000000000000000e+00  1.3768461497506113e-06 3.8722428551561708e-10 0.0000000000000000e+00  1.3772924729179550e-06 -3.0310442645688161e-10 0.0000000000000000e+00  -2.5111856257596373e-07 2.0366308093642800e-06 0.0000000000000000e+00  -5.1292472861636789e-07 -2.1227605144723241e-06 0.0000000000000000e+00  1.3258469979427561e-06 -4.5128292069877345e-09 0.0000000000000000e+00  1.3625101775444051e-06 1.7033841406150878e-09 0.0000000000000000e+00  1.3774457946796612e-06 -2.7658048714335750e-10 0.0000000000000000e+00  1.3771494821281654e-06 -3.1450481140275576e-10 0.0000000000000000e+00  9.7704659950026949e-21 1.1262395213600321e-22 0.0000000000000000e+00  1.2179842127906362e-06 8.8300558593822085e-08 0.0000000000000000e+00  5.6659082025531609e-06 6.6421441479041116e-06 0.0000000000000000e+00  5.7599498848868128e-06 -7.0890324112147882e-06 0.0000000000000000e+00  1.3779558543334834e-06 -2.2149123596831985e-10 0.0000000000000000e+00  1.3120811032383359e-06 1.3226402513954793e-09 0.0000000000000000e+00  9.5155304695501625e-21 2.8717889579107049e-23 0.0000000000000000e+00  1.3180154868032991e-06 -2.1187555832606388e-09 0.0000000000000000e+00  1.3779686078783674e-06 2.4312259903566264e-10 0.0000000000000000e+00  1.3591615675025994e-06 1.0938485863439476e-07 0.0000000000000000e+00  1.3756025561900684e-06 5.6375333834307779e-11 0.0000000000000000e+00  9.9859870817783884e-21 -1.0005536862989115e-22 0.0000000000000000e+00  1.3772379459040419e-06 5.5300666178031183e-10 0.0000000000000000e+00  1.3767093100933089e-06 -6.1393448126441688e-10 0.0000000000000000e+00  1.3653747150592842e-06 -4.6539679958923067e-10 0.0000000000000000e+00  1.3690692883621086e-06 2.6097874355616271e-10 0.0000000000000000e+00  1.3656830102508523e-06 -1.0365122147171146e-09 0.0000000000000000e+00  1.0187374261667250e-20 8.1957649249971103e-23 0.0000000000000000e+00  1.3698734304851766e-06 -3.9815368454241293e-10 0.0000000000000000e+00  1.3773811064351791e-06 1.0965544683511047e-09 0.0000000000000000e+00  1.3249878417075834e-06 3.1105828278757785e-09 0.0000000000000000e+00  1.3771633645467022e-06 -5.9580492287193712e-11 0.0000000000000000e+00  1.3773772561663749e-06 -6.8520317886988551e-09 0.0000000000000000e+00  1.3761362125881679e-06 1.9009314448915157e-10 0.0000000000000000e+00  1.3763117368846464e-06 -3.2356573924219580e-10 0.0000000000000000e+00  1.3283633888900250e-06 -2.0807391861832907e-08 0.0000000000000000e+00  1.3689682825451833e-06 8.3526236387010340e-10 0.0000000000000000e+00  1.3684317753494829e-06 -1.2245194322758052e-09 0.0000000000000000e+00  1.3670638072675643e-06 -8.8607905183704676e-10 0.0000000000000000e+00  1.3694386201610196e-06 -2.2387757078766664e-09 0.0000000000000000e+00  1.3760452708573322e-06 4.2439260809749241e-10 0.0000000000000000e+00  1.0459901874765888e-20 -1.2147888969302084e-22 0.0000000000000000e+00  1.2743758053239927e-06 -7.3734918079371583e-07 0.0000000000000000e+00  7.5265143035891550e-07 -1.3878977464802750e-06 0.0000000000000000e+00  3.2088988987998574e-07 -1.0433309181225281e-06 0.0000000000000000e+00  9.8477526424475412e-07 -3.5333117345638487e-07 0.0000000000000000e+00  1.3775858071670347e-06 7.1829359644473551e-11 0.0000000000000000e+00  1.3764573444882473e-06 -7.2636437104345917e-10 0.0000000000000000e+00  1.3762870929857526e-06 1.1692598793334381e-10 0.0000000000000000e+00  1.3762562124646387e-06 -2.6328861452889356e-10 0.0000000000000000e+00  1.3744308333549662e-06 -2.9748356066581086e-09 0.0000000000000000e+00  1.3681892412523262e-06 3.0484340371219543e-09 0.0000000000000000e+00  1.0736360889959097e-20 2.1833364988651602e-23 0.0000000000000000e+00  1.3672073146659950e-06 1.9088365366161415e-09 0.0000000000000000e+00  1.3763031557897807e-06 -4.0768471227857242e-10 0.0000000000000000e+00  1.3762633657416335e-06 6.0308792085752693e-12 0.0000000000000000e+00  1.3668895357628366e-06 1.2269712407241229e-09 0.000000