<?xml version="1.0"?>
<VTKFile type="UnstructuredGrid"  version="0.1"  >
<UnstructuredGrid>
<Piece  NumberOfPoints="1079" NumberOfCells="1944">
<Points>
<DataArray  type="Float64"  NumberOfComponents="3"  format="ascii">0.08500000000000001 0.02 0  0.005 0.02 0  0.005 0.03 0  0 0.03 0  0 0 0  0.005 0 0  0.005 0.01 0  0.08500000000000001 0.01 0  0 0.015 0  0 0.0075 0  0 0.0225 0  0.04500000000000001 0.02 0  0.04500000000000001 0.01 0  0.025 0.01 0  0.025 0.02 0  0.065 0.02 0  0.065 0.01 0  0.035 0.02 0  0.035 0.01 0  0.07500000000000001 0.02 0  0.07500000000000001 0.01 0  0.015 0.02 0  0.015 0.01 0  0.05500000000000001 0.01 0  0.05500000000000001 0.02 0  0.07000000000000001 0.01 0  0.07000000000000001 0.02 0  0.05 0.01 0  0.03 0.01 0  0.03 0.02 0  0.04000000000000001 0.01 0  0.01 0.01 0  0.02 0.02 0  0.06 0.015 0  0.08500000000000001 0.015 0  0.05 0.02 0  0.07250000000000001 0.015 0  0.04000000000000001 0.02 0  0.03750000000000001 0.015 0  0.0525 0.015 0  0.02 0.01 0  0.01 0.02 0  0.0275 0.015 0  0.0125 0.015 0  0.08000000000000002 0.01 0  0.08000000000000002 0.02 0  0.0325 0.014375 0  0.04291666666666667 0.015 0  0.065 0.015 0  0.005 0.005 0  0.005 0.015 0  0.02208333333333334 0.015 0  0.07791666666666668 0.015 0  0.005 0.025 0  0.06 0.01 0  0.06 0.02 0  0.01729166666666667 0.01572916666666667 0  0.04770833333333334 0.01427083333333334 0  0.06875000000000001 0.01625 0  0.008750000000000001 0.01625 0  0.05625000000000001 0.01625 0  0 0.00375 0  0 0.01875 0  0 0.01125 0  0 0.02625 0  0.08145833333333334 0.01354166666666667 0  0.0675 0.01 0  0.0075 0.0125 0  0.0625 0.0175 0  0.0575 0.0125 0  0.0625 0.0125 0  0.08207465277777778 0.01707465277777778 0  0.06767857142857144 0.01321428571428571 0  0.0175 0.01 0  0.01875 0.01291382575757576 0  0.0475 0.02 0  0.04564168086314595 0.01679860519591141 0  0.00296875 0.0125 0  0.0025 0.03 0  0.0025 0 0  0.00296875 0.0175 0  0.01521990740740741 0.0132349537037037 0  0.0497800925925926 0.0167650462962963 0  0.0325 0.02 0  0.03474264705882353 0.01674632352941176 0  0.03750000000000001 0.02 0  0.03025735294117647 0.01674632352941176 0  0.0275 0.02 0  0.0525 0.02 0  0.0125 0.01 0  0.04020833333333334 0.01322916666666667 0  0.03750000000000001 0.01 0  0.0225 0.02 0  0.02479166666666667 0.01677083333333333 0  0.07520833333333335 0.01322916666666667 0  0.07250000000000001 0.01 0  0.07520833333333335 0.01677083333333334 0  0.07250000000000001 0.02 0  0.04020833333333334 0.01677083333333333 0  0.0225 0.01 0  0.02375 0.01262152777777778 0  0.04250000000000001 0.02 0  0.04250000000000001 0.01 0  0.07750000000000001 0.01 0  0.07750000000000001 0.02 0  0.05036151960784314 0.01294424019607843 0  0.0705560064935065 0.01284699675324675 0  0.05458333333333334 0.01291666666666666 0  0.0021875 0.024375 0  0.005 0.0275 0  0.01125 0.0175 0  0.01463848039215686 0.01705575980392157 0  0.01 0.01375 0  0.03625 0.0125 0  0.0021875 0.009375 0  0.05375000000000001 0.0175 0  0.07125000000000001 0.0175 0  0.005 0.0025 0  0.0021875 0.005625 0  0.02655220103578155 0.01234889948210923 0  0.002187499999999999 0.020625 0  0.02979166666666667 0.01302083333333333 0  0.0525 0.01 0  0.07895833333333334 0.0125 0  0.01994277885235332 0.01704213007736944 0  0.07934656179076068 0.01733823814273861 0  0.04505722114764669 0.01295786992263056 0  0.06625 0.0175 0  0.006250000000000001 0.0175 0  0.05750000000000001 0.02 0  0.05875000000000001 0.0175 0  0.005 0.0225 0  0.005 0.0075 0  0.002375 0.027375 0  0.002375 0.002625000000000001 0  0.0475 0.01 0  0.0175 0.02 0  0.0325 0.01 0  0.03375 0.0121875 0  0.04261299435028249 0.01749205508474576 0  0.08500000000000001 0.0125 0  0.08250000000000002 0.01 0  0.02121963399965531 0.01224824108143494 0  0.0675 0.02 0  0.0125 0.02 0  0.02720152243589744 0.0175 0  0.03715165441176471 0.0175 0  0.08500000000000001 0.0175 0  0.0275 0.01 0  0.0025 0.0149560546875 0  0.0075 0.01 0  0.0075 0.02 0  0.06526785714285716 0.0125 0  0.01281031447005516 0.0125 0  0.0625 0.015 0  0.06 0.0125 0  0.05750000000000001 0.01 0  0.0625 0.02 0  0.0625 0.01 0  0.08250000000000002 0.02 0  0.04260103740101855 0.01252623201412851 0  0.02240052247582197 0.01750164767101344 0  0.07293583459427785 0.01238479732953041 0  0.005234374999999999 0.012265625 0  0.03528131980640358 0.01454684009679821 0  0.0325 0.01760027210036557 0  0.02532593822924343 0.01428227733767297 0  0.08009952069819683 0.01527145502895417 0  0.01987282359856536 0.01482587683689801 0  0.04828232595121382 0.01210233572595705 0  0.01671767404878618 0.01789766427404295 0  0.05125 0.01829007549029352 0  0.05247215456215357 0.01288882122882024 0  0.07338729919678716 0.01799385040160642 0  0.03838729919678716 0.01200614959839357 0  0.07717482110586968 0.01780301674207099 0  0.04771860040890012 0.01773306039388322 0  0.03125 0.01160380747126437 0  0.06875000000000001 0.01154265873015873 0  0.07625000000000001 0.01154065860215054 0  0.01625 0.01153997817696946 0  0.068125 0.018125 0  0.05437500000000001 0.015625 0  0.066875 0.015625 0  0.07039794950204951 0.01494384850614853 0  0.05687500000000001 0.018125 0  0.006875 0.015625 0  0.008749999999999999 0.01833333333333333 0  0.010625 0.015625 0  0.05625 0.01416666666666667 0  0.05812500000000001 0.015625 0  0.0449088595298192 0.01494528408816316 0  0 0.016875 0  0 0.013125 0  0.04962452342047931 0.01478673066448802 0  0.0153754765795207 0.01521326933551198 0  0.0771774565913315 0.01322498191305479 0  0.01857756431135545 0.01840228599899994 0  0.04642243568864456 0.01159771400100006 0  0.08125000000000002 0.01155637254901961 0  0.08317650804863432 0.0118234919513657 0  0.08288217288011697 0.01511353252923977 0  0.02837253504384828 0.0117177464035174 0  0.03896057962520807 0.01831163685754031 0  0.01125 0.0114244162490927 0  0.00935910490099115 0.0119067901980177 0  0.02946078431372549 0.01495404411764706 0  0.02875 0.0185829434466942 0  0.002968749999999999 0.0225 0  0.064375 0.016875 0  0.00296875 0.0075 0  0 0.001875 0  0 0.005625 0  0 0.009375 0  0 0.020625 0  0 0.024375 0  0 0.028125 0  0.06062500000000001 0.01812500000000001 0  0.008303571428571429 0.01446428571428572 0  0.01375 0.01865917058160413 0  0.05137790313978056 0.01143372888932909 0  0.04125000000000001 0.01131513063942604 0  0.04101690263896279 0.01844430285842771 0  0.02399563533148224 0.01844349395710867 0  0.08125000000000002 0.01868815426145731 0  0.05354684380692146 0.01145463537600848 0  0.01699195823639423 0.01315138909884649 0  0.07598357371794873 0.015 0  0.04098357371794872 0.015 0  0.003744047619047619 0.00375 0  0.003344630281690141 0.02580853873239437 0  0.04625 0.0187354532243972 0  0.06388392857142858 0.01138392857142858 0  0.06375 0.01375 0  0.05875 0.01375 0  0.06375 0.02 0  0.00622802734375 0.01372802734375 0  0.003630681818181818 0.001369318181818182 0  0.003630681818181818 0.02863068181818182 0  0.06125 0.01625 0  0.06125 0.01125 0  0.05625000000000001 0.01 0  0.05875 0.01125 0  0.06125 0.01375 0  0.08337864763241221 0.0183786476324122 0  0.05213634138653413 0.01674432930673294 0  0.04375000000000001 0.01 0  0.07424178685897437 0.01529258578431373 0  0.03924178685897436 0.01529258578431372 0  0.03410139294454583 0.01843406022904556 0  0.03089860705545417 0.01843406022904556 0  0.02094160484316717 0.01850229584291991 0  0.04375000000000001 0.02 0  0.04437042160883325 0.01820701498672512 0  0.04816311705429156 0.01600061344661149 0  0.07151224904251052 0.0114127410511319 0  0.04395528506193162 0.01639387970349481 0  0.0128750358694518 0.0167500179347259 0  0.02855808448399799 0.01642839899839741 0  0.02812690373330794 0.01340955081400569 0  0.08358500641945087 0.01351822349116885 0  0.05590277777777778 0.01173611111111111 0  0.06683110430364615 0.01164926404662283 0  0.02573206694914602 0.01842532451809762 0  0.01438126661842046 0.01166701193099454 0  0.02384283211216029 0.01526549696571563 0  0.03625 0.02 0  0.004609375000000001 0.0182421875 0  0.003398437500000001 0.01943359375 0  0.001728307845744682 0.01894718251329787 0  0.004377805359085963 0.01656966216675735 0  0.04649673309852075 0.0153889662370871 0  0.03615513600614297 0.01592654988586041 0  0.03316985071935832 0.01598763605018279 0  0.03110111603888768 0.01529816275177977 0  0.01370614113484869 0.0138804542047638 0  0.04930041102671841 0.01842260568883502 0  0.07875000000000001 0.02 0  0.0745395359848485 0.01165101111925709 0  0.03860755698543604 0.01373741558556884 0  0.02605038706571737 0.01573944002207753 0  0.07559826163500957 0.01841729376139847 0  0.04437500000000001 0.01149157931286774 0  0.06874116707361365 0.01454618473032123 0  0.003761917372881356 0.0239307468220339 0  0.003984374999999999 0.01125 0  0.003768503289473684 0.01392539576480263 0  0.001796875 0.0111328125 0  0.003761917372881356 0.008930746822033899 0  0.005 0.00625 0  0.003761917372881355 0.0210692531779661 0  0.06633928571428571 0.01410714285714285 0  0.006484375 0.01125 0  0.08364120589325512 0.01657288979763549 0  0.03576267476503373 0.0184116442851204 0  0.07370875846579374 0.0137848203678562 0  0.06964285714285715 0.01758928571428571 0  0.05520833333333334 0.01833333333333333 0  0.06491071428571429 0.01839285714285714 0  0.0510098951944636 0.01559941474766356 0  0.01786087179886325 0.0115702210443714 0  0.01972197383235524 0.01160576093166696 0  0.01804697593127788 0.01433503795474974 0  0.001644074528704677 0.01642892723865279 0  0.00125 0.03 0  0.001497685185185185 0.001267746913580247 0  0.07315451164202422 0.01643443118912983 0  0.001233906745910645 0.0140625 0  0.01162635071030191 0.01362229857939618 0  0.01528023503083844 0.01845923557506155 0  0.06625 0.02 0  0.07695012019230771 0.01624387078484555 0  0.03139091092855769 0.01320776147621796 0  0.03857339107781042 0.01675295051810485 0  0.001754993120977522 0.02590789105493891 0  0.002288757784711197 0.00412546923654445 0  0.07914382119690884 0.01404430049871201 0  0.001391810103286306 0.01257390899021902 0  0.0419501201923077 0.01614675005432421 0  0.001484375 0.007018229166666667 0  0.001484375 0.02201822916666666 0  0.048
[...]
<PointData  Vectors="velocity"> 
<DataArray  type="Float64"  Name="velocity"  NumberOfComponents="3" format="ascii">1.5043934905350179e-05 1.1304682976713750e-19 0.0000000000000000e+00  3.1217293508778318e-19 -3.5012056251817885e-19 0.0000000000000000e+00  1.1911400820763631e-17 -6.8926121043497385e-04 0.0000000000000000e+00  -1.4723814903443939e-17 -6.8926121043497266e-04 0.0000000000000000e+00  -1.3565762045869711e-17 6.8926121043497320e-04 0.0000000000000000e+00  1.3276248831476153e-17 6.8926121043497222e-04 0.0000000000000000e+00  3.0871923041662758e-19 2.7613180817410008e-19 0.0000000000000000e+00  1.5448942106120511e-05 -1.1457857741941528e-19 0.0000000000000000e+00  3.3741003758234218e-20 -4.2933911967813000e-22 0.0000000000000000e+00  -3.4634670401103384e-21 2.7917345673664800e-19 0.0000000000000000e+00  1.8523339533371806e-21 -3.0957270625008339e-19 0.0000000000000000e+00  2.9640900667104188e-19 -1.1976272077140095e-21 0.0000000000000000e+00  2.4394424808529767e-19 1.6073420093097183e-21 0.0000000000000000e+00  2.9888869775469824e-19 7.9080062882499884e-22 0.0000000000000000e+00  2.4270244399343678e-19 -1.0110363387049067e-21 0.0000000000000000e+00  2.6577203853958147e-19 9.1989926314135200e-22 0.0000000000000000e+00  2.8686238787154219e-19 3.6039454336185638e-22 0.0000000000000000e+00  2.2487637971827778e-19 -4.7881027943852728e-22 0.0000000000000000e+00  3.1623644856620513e-19 -3.9888650038349800e-22 0.0000000000000000e+00  2.7379135955647508e-19 1.7168712116696162e-21 0.0000000000000000e+00  2.6177998533208458e-19 1.0501620618226237e-21 0.0000000000000000e+00  2.3013395334857422e-19 -6.0897341485887837e-22 0.0000000000000000e+00  2.2860165132887516e-19 -4.9305496872559903e-22 0.0000000000000000e+00  2.6501456919821723e-19 -3.2047563814183107e-21 0.0000000000000000e+00  2.6152848947484588e-19 1.1689204185576349e-21 0.0000000000000000e+00  2.5303429826119863e-19 4.0352731768288912e-22 0.0000000000000000e+00  2.8861415592619361e-19 -1.0789755192553268e-21 0.0000000000000000e+00  2.8698406390756761e-19 8.9641374584514365e-22 0.0000000000000000e+00  2.6843275884349947e-19 1.8176943364442981e-22 0.0000000000000000e+00  2.3851733499840069e-19 -5.4853087648271857e-22 0.0000000000000000e+00  2.5592926075865758e-19 8.8447400102869942e-22 0.0000000000000000e+00  2.8171297427255735e-19 1.5353236087126595e-21 0.0000000000000000e+00  2.4163010771659529e-19 -5.0946230925574017e-22 0.0000000000000000e+00  3.8308247649514692e-05 -5.5846056073722522e-09 0.0000000000000000e+00  3.6789300173528520e-05 1.3420784758348645e-22 0.0000000000000000e+00  2.4340938156911457e-19 1.3614619838626887e-22 0.0000000000000000e+00  3.8307530315870093e-05 1.2915195479406202e-08 0.0000000000000000e+00  2.6906580718687159e-19 -2.6248443641225815e-21 0.0000000000000000e+00  3.8275653470489128e-05 -1.8627925150511398e-08 0.0000000000000000e+00  3.8268334947456822e-05 -2.0933754053510635e-09 0.0000000000000000e+00  2.5321157478081407e-19 1.0839156843305324e-22 0.0000000000000000e+00  2.6965883978942147e-19 -5.3132457518251126e-21 0.0000000000000000e+00  3.8273271959366551e-05 -9.0994408106929249e-10 0.0000000000000000e+00  3.8193454632606618e-05 -1.3481932558974971e-07 0.0000000000000000e+00  2.4932306821264227e-19 -1.0893113910356853e-21 0.0000000000000000e+00  2.7090762909228251e-19 4.9177645183545330e-21 0.0000000000000000e+00  3.8264424954247116e-05 1.1413054678821719e-09 0.0000000000000000e+00  3.8303218873903189e-05 -3.7300736942040518e-09 0.0000000000000000e+00  3.8292858420042167e-05 -3.2240261296888982e-09 0.0000000000000000e+00  -1.8809429599858628e-20 3.2642819623035081e-19 0.0000000000000000e+00  2.8938881129092751e-05 -1.3842411519550262e-06 0.0000000000000000e+00  3.8258409847316104e-05 9.9181116834888156e-09 0.0000000000000000e+00  3.8248315193389770e-05 1.9695871489526474e-09 0.0000000000000000e+00  -2.8027414115454821e-20 -4.1234778943537140e-19 0.0000000000000000e+00  2.4298430493745409e-19 5.5788243217230463e-22 0.0000000000000000e+00  2.8478391514655641e-19 3.5444066077164572e-21 0.0000000000000000e+00  3.8275686660159527e-05 -1.0937975924594515e-08 0.0000000000000000e+00  3.8288639941987561e-05 1.0127159887918448e-08 0.0000000000000000e+00  3.8293168169681747e-05 -9.7577402273717443e-09 0.0000000000000000e+00  3.7687245305358458e-05 -1.1751604885402942e-06 0.0000000000000000e+00  3.8265964801253856e-05 -2.8809591158280305e-08 0.0000000000000000e+00  -1.5782464974919321e-19 6.2959330666636137e-20 0.0000000000000000e+00  1.5481351949397711e-20 -1.5933487551616722e-19 0.0000000000000000e+00  2.1886437206795284e-20 1.6817999116800588e-19 0.0000000000000000e+00  -1.8934371191432346e-19 3.3464069930477106e-20 0.0000000000000000e+00  3.7896360045776834e-05 -3.6652983774228237e-07 0.0000000000000000e+00  2.2000458250970099e-19 -6.7447378130646246e-22 0.0000000000000000e+00  3.7792128966900859e-05 2.2239609821989239e-06 0.0000000000000000e+00  3.8221889734668745e-05 1.2384248893396063e-09 0.0000000000000000e+00  3.8239014410811219e-05 3.1668087520962194e-09 0.0000000000000000e+00  3.8273225344778385e-05 -1.6518371637070885e-08 0.0000000000000000e+00  3.7854962144748558e-05 7.0068753367707759e-07 0.0000000000000000e+00  3.8268965184470867e-05 -7.7465487199642273e-09 0.0000000000000000e+00  2.5612754278457030e-19 -4.0586392736341324e-23 0.0000000000000000e+00  3.8239268464745203e-05 6.2267228973092419e-10 0.0000000000000000e+00  3.1905010429818330e-19 4.5760051553326966e-21 0.0000000000000000e+00  3.8303169414825175e-05 -2.9145598195577978e-08 0.0000000000000000e+00  1.8352919403302693e-05 1.5127554565965860e-05 0.0000000000000000e+00  -7.6154541584328035e-19 -6.8926121043497613e-04 0.0000000000000000e+00  -1.1510649319482098e-18 6.8926121043497645e-04 0.0000000000000000e+00  1.8920874327608335e-05 -1.8456572706461760e-05 0.0000000000000000e+00  3.8226472768859742e-05 -4.9136927116684637e-08 0.0000000000000000e+00  3.8256600195179121e-05 3.4360871068933064e-08 0.0000000000000000e+00  2.5647536317414671e-19 2.3466377613030147e-21 0.0000000000000000e+00  3.8253354025295937e-05 -1.1823173629232914e-08 0.0000000000000000e+00  2.6186287095799406e-19 1.6884469470672311e-21 0.0000000000000000e+00  3.8260744327116926e-05 -1.2132527049834975e-08 0.0000000000000000e+00  2.9085456095457976e-19 5.9539502596530223e-22 0.0000000000000000e+00  2.5304756823407923e-19 -2.9853918572749985e-23 0.0000000000000000e+00  2.8688664186355191e-19 1.5272806534503123e-21 0.0000000000000000e+00  3.8273087522387738e-05 1.1849232385037982e-08 0.0000000000000000e+00  2.6231987734601366e-19 8.9563279215567142e-22 0.0000000000000000e+00  2.7414234857434337e-19 7.5073601543545969e-22 0.0000000000000000e+00  3.8248856991068256e-05 3.0977992100443052e-09 0.0000000000000000e+00  3.8286210853435310e-05 6.1210177194886554e-09 0.0000000000000000e+00  2.6815236792189092e-19 2.0219132549211977e-22 0.0000000000000000e+00  3.8278928074877787e-05 2.6256397967490139e-08 0.0000000000000000e+00  3.0063161193737840e-19 3.0949096773463948e-21 0.0000000000000000e+00  3.8296593797200660e-05 -4.8649555670801300e-08 0.0000000000000000e+00  2.4044419195851616e-19 6.3398370926561871e-23 0.0000000000000000e+00  3.8216209162957396e-05 2.5936582573536125e-08 0.0000000000000000e+00  2.8245720548953156e-19 -2.9344373908071350e-23 0.0000000000000000e+00  2.6838845605999742e-19 2.4987985913359922e-21 0.0000000000000000e+00  2.7124192934660239e-19 4.8784481741209172e-21 0.0000000000000000e+00  2.9893923611223695e-19 -1.8078015986225402e-21 0.0000000000000000e+00  3.8281248183474025e-05 2.8965185527023514e-08 0.0000000000000000e+00  3.8290254116736586e-05 4.5258578989839360e-08 0.0000000000000000e+00  3.8279058011300317e-05 4.7672573863742747e-09 0.0000000000000000e+00  -7.5733254331367376e-06 -4.1894102316735605e-05 0.0000000000000000e+00  5.0779855705921220e-20 -5.4549379170497985e-19 0.0000000000000000e+00  3.8400215880850839e-05 -3.1029255686491690e-07 0.0000000000000000e+00  3.8329539968081971e-05 -1.0179418327230376e-07 0.0000000000000000e+00  3.7837967283608764e-05 1.2188292286055436e-07 0.0000000000000000e+00  3.8188059874810162e-05 -4.1082725638051953e-08 0.0000000000000000e+00  6.4704320468948542e-06 3.4463909217258793e-05 0.0000000000000000e+00  3.8221052468137791e-05 -5.0425306179363051e-11 0.0000000000000000e+00  3.8302369561017571e-05 1.6035934987396053e-10 0.0000000000000000e+00  1.1207877591278744e-19 3.0341768064787757e-19 0.0000000000000000e+00  -6.7408308607544595e-06 3.6704403840490907e-05 0.0000000000000000e+00  3.8215814698193774e-05 -2.6278338159771944e-08 0.0000000000000000e+00  6.4035879703985199e-06 -3.9153589015817358e-05 0.0000000000000000e+00  3.8281729628547272e-05 -6.2379668990269936e-09 0.0000000000000000e+00  2.4033641354437644e-19 -2.1087023342855990e-21 0.0000000000000000e+00  3.8207837605892328e-05 -1.1710549867827185e-07 0.0000000000000000e+00  3.8243301292542029e-05 1.1248213265443413e-09 0.0000000000000000e+00  3.8227164398604124e-05 1.7670553996161587e-07 0.0000000000000000e+00  3.8291128659789945e-05 -8.4807531025684511e-09 0.0000000000000000e+00  3.8274560865044518e-05 -4.5253218870766709e-08 0.0000000000000000e+00  3.8144968063572473e-05 -6.9607224841146645e-06 0.0000000000000000e+00  2.8563724403959817e-19 -3.8414148228094726e-21 0.0000000000000000e+00  3.8204795755723944e-05 -1.3367161436719772e-08 0.0000000000000000e+00  4.1703647503990258e-21 -3.4617436445819050e-19 0.0000000000000000e+00  3.2892585491697166e-21 3.2553868208173084e-19 0.0000000000000000e+00  -8.2925773376728499e-05 -9.4650545651801585e-05 0.0000000000000000e+00  -6.7968412177055382e-05 7.8419450177385450e-05 0.0000000000000000e+00  2.5799116054768785e-19 9.7526900408652155e-23 0.0000000000000000e+00  3.0719700674139692e-19 4.3145994365413967e-21 0.0000000000000000e+00  2.5677485549524261e-19 5.0161196183825620e-22 0.0000000000000000e+00  3.8206728237561000e-05 4.6526486946268236e-08 0.0000000000000000e+00  3.8222651051030430e-05 2.8244626720062330e-08 0.0000000000000000e+00  3.4770399102682788e-05 -9.2505467105493690e-21 0.0000000000000000e+00  2.6730046462189182e-19 -9.8834856909334995e-21 0.0000000000000000e+00  3.8222625452972008e-05 1.1179420269344440e-08 0.0000000000000000e+00  2.8423424839803548e-19 1.7929736404985659e-21 0.0000000000000000e+00  2.5622065136296770e-19 -5.0905907968800826e-22 0.0000000000000000e+00  3.8259576741431720e-05 -4.7751236337348642e-09 0.0000000000000000e+00  3.8301304524777727e-05 4.0239021623021183e-09 0.0000000000000000e+00  3.4730758509355926e-05 1.2319150802190046e-20 0.0000000000000000e+00  2.7689354704492450e-19 -3.3897256495669033e-21 0.0000000000000000e+00  1.4234973160657206e-05 -1.2205629218862085e-06 0.0000000000000000e+00  2.8843048434849561e-19 9.3559090430291836e-21 0.0000000000000000e+00  3.3599683175708284e-19 -1.2236524594306127e-20 0.0000000000000000e+00  3.8261325768749980e-05 -1.7197421185255258e-08 0.0000000000000000e+00  3.8136982425129782e-05 -3.8085117900298979e-08 0.0000000000000000e+00  3.8311700275304818e-05 2.5801207681978630e-10 0.0000000000000000e+00  3.8239482236626958e-05 2.4004716298861971e-08 0.0000000000000000e+00  2.8153361139648558e-19 2.7351816149378243e-22 0.0000000000000000e+00  2.9782693845553850e-19 8.0878284116259755e-22 0.0000000000000000e+00  2.6372508043256202e-19 -5.0096151372818141e-21 0.0000000000000000e+00  2.4294066567456439e-19 4.9608455676004910e-21 0.0000000000000000e+00  3.8232064914111422e-05 -6.2509331082877478e-09 0.0000000000000000e+00  3.8236679730378820e-05 1.4899067415665191e-08 0.0000000000000000e+00  3.8227938018942961e-05 -1.2754456676062766e-08 0.0000000000000000e+00  3.4751675785964738e-05 1.0457095497577829e-05 0.0000000000000000e+00  3.8281275347607428e-05 -1.1008988419222659e-08 0.0000000000000000e+00  3.8218882945684183e-05 1.2489664801191073e-08 0.0000000000000000e+00  3.8271918875809846e-05 1.1400861860916632e-08 0.0000000000000000e+00  3.8058671259944202e-05 4.2823453183731579e-08 0.0000000000000000e+00  3.8254492100609831e-05 3.7764725994749598e-09 0.0000000000000000e+00  3.8133515754293246e-05 1.0452091790345647e-08 0.0000000000000000e+00  3.8219649216529197e-05 9.0783164673432571e-09 0.0000000000000000e+00  3.8058716521146466e-05 2.8504694325394822e-09 0.0000000000000000e+00  3.8266433433029969e-05 -3.6716183100584300e-08 0.0000000000000000e+00  3.8152355886025073e-05 2.2599744287082595e-08 0.0000000000000000e+00  3.8117079388377641e-05 -1.4143828150248649e-08 0.0000000000000000e+00  3.8204828411283970e-05 1.5839131938346602e-08 0.0000000000000000e+00  3.8258743931875424e-05 4.7915988543578762e-08 0.0000000000000000e+00  3.8000918576031105e-05 -4.4239069839169850e-08 0.0000000000000000e+00  3.7997405301026419e-05 4.1312269752485359e-08 0.0000000000000000e+00  3.8059793055210311e-05 -5.7833851177388493e-09 0.0000000000000000e+00  3.7985189483682742e-05 -2.6099209033352221e-08 0.0000000000000000e+00  3.8078418520048198e-05 -2.3161918509014933e-08 0.0000000000000000e+00  3.8264055876358307e-05 -1.0431743822099065e-08 0.0000000000000000e+00  3.8286018652519883e-05 -7.0796959309106859e-09 0.0000000000000000e+00  3.8302817654241982e-05 8.9955469715023601e-09 0.0000000000000000e+00  3.8116923188988355e-05 -3.6150125213473941e-08 0.0000000000000000e+00  3.5068397487910320e-05 -2.0687315115773892e-06 0.0000000000000000e+00  3.9141481636999113e-05 -1.1390366734128654e-06 0.0000000000000000e+00  3.8033304121731440e-05 -3.4733585320569425e-07 0.0000000000000000e+00  3.8277865492928505e-05 -1.1682145878179024e-08 0.0000000000000000e+00  3.8298252930889725e-05 -2.5703816477855309e-08 0.0000000000000000e+00  3.8299228274101933e-05 -6.0579246446556294e-09 0.0000000000000000e+00  2.4571564628969618e-20 -9.2522558170811519e-20 0.0000000000000000e+00  3.7727473777480231e-20 7.9911096400777301e-20 0.0000000000000000e+00  3.8278761844519879e-05 1.8423398799397340e-08 0.0000000000000000e+00  3.8270118699352794e-05 -5.5783920997600915e-08 0.0000000000000000e+00  3.8305072010425075e-05 7.3861264604003293e-09 0.0000000000000000e+00  3.8007396383507625e-05 1.7730946254011265e-08 0.0000000000000000e+00  3.8083061398983358e-05 2.0336821028251922e-08 0.0000000000000000e+00  3.8292084327016112e-05 -5.1536678930998599e-07 0.0000000000000000e+00  3.7805141919776849e-05 -2.3770518339407759e-06 0.0000000000000000e+00  3.7300276193564301e-05 4.0912921346451545e-08 0.0000000000000000e+00  3.8030739958856714e-05 3.3165668644708038e-08 0.0000000000000000e+00  3.8039869556580068e-05 -3.3983393912697186e-09 0.0000000000000000e+00  3.6577482868175436e-05 2.2513662700682770e-08 0.0000000000000000e+00  3.8178605938778800e-05 5.2124127358174158e-07 0.0000000000000000e+00  3.8269463243625299e-05 -5.2801651948106474e-09 0.0000000000000000e+00  3.7893181207736693e-05 4.5051456683036857e-08 0.0000000000000000e+00  4.0704049797936885e-07 -4.4725530603152571e-05 0.0000000000000000e+00  3.8275964367859401e-05 2.3683422768585418e-08 0.0000000000000000e+00  5.2372859609354932e-07 3.9285245373760157e-05 0.0000000000000000e+00  -1.5780106042698806e-18 -1.6253540317139862e-18 0.0000000000000000e+00  -3.1542488507475674e-20 2.2964747028464304e-19 0.0000000000000000e+00  1.4956726474725992e-20 2.5898899824647026e-19 0.0000000000000000e+00  1.3922544419459581e-20 -2.7106387922724950e-19 0.0000000000000000e+00  -2.9513486664388061e-20 -2.7933891603477154e-19 0.0000000000000000e+00  -1.6757237800418469e-18 1.3661996727973219e-18 0.0000000000000000e+00  3.8148715017701204e-05 -2.6473791180686692e-08 0.0000000000000000e+00  3.6804842648050412e-05 2.8964524447180548e-08 0.0000000000000000e+00  3.6790430163196864e-05 -8.4652619598668466e-08 0.0000000000000000e+00  3.6759422912972530e-05 1.1965095487703474e-08 0.0000000000000000e+00  3.6778180141156806e-05 -5.4296772758749501e-09 0.0000000000000000e+00  3.6746609408021764e-05 4.1436403590064903e-08 0.0000000000000000e+00  3.7950891132363011e-05 5.0388567996384556e-08 0.0000000000000000e+00  3.8115569227441025e-05 5.5503467931361437e-07 0.0000000000000000e+00  3.7963452009410284e-05 -6.2980724575710893e-09 0.0000000000000000e+00  3.8230138441120321e-05 -1.9247571259359758e-08 0.0000000000000000e+00  3.8284532593815256e-05 1.0755834983857397e-08 0.0000000000000000e+00  3.8296988913645505e-05 -8.4261071027484266e-09 0.0000000000000000e+00  -6.4121863361750501e-06 5.5899833003196858e-05 0.0000000000000000e+00  -1.3155612913738545e-05 -5.7820613419778262e-05 0.0000000000000000e+00  3.6865101244714869e-05 -1.2552216155793224e-07 0.0000000000000000e+00  3.7885750617268571e-05 4.7581858365122423e-08 0.0000000000000000e+00  3.8301225480500006e-05 -7.6916710154552457e-09 0.0000000000000000e+00  3.8293027020381721e-05 -8.7289272709383525e-09 0.0000000000000000e+00  2.8072087907017762e-19 3.0660420082836571e-21 0.0000000000000000e+00  3.3905407018083958e-05 2.5607309963710594e-06 0.0000000000000000e+00  1.5498232941038475e-04 1.7925190481626955e-04 0.0000000000000000e+00  1.5581096489540082e-04 -1.9024154978214555e-04 0.0000000000000000e+00  3.8315400784975101e-05 -6.1337255530153197e-09 0.0000000000000000e+00  3.6482233189492890e-05 3.6505281354167559e-08 0.0000000000000000e+00  2.6501023751194138e-19 7.2169236142014266e-22 0.0000000000000000e+00  3.6648847728844884e-05 -5.9549799110431622e-08 0.0000000000000000e+00  3.8315789319236262e-05 6.7528925847995188e-09 0.0000000000000000e+00  3.7793213671673801e-05 3.0411256301743914e-06 0.0000000000000000e+00  3.8249978699302759e-05 1.5513335051386548e-09 0.0000000000000000e+00  2.7413306399333000e-19 -2.7106572045591690e-21 0.0000000000000000e+00  3.8295443168316862e-05 1.5373934811918202e-08 0.0000000000000000e+00  3.8280768117969091e-05 -1.7066450094337907e-08 0.0000000000000000e+00  3.7965556525715431e-05 -1.3073519459149840e-08 0.0000000000000000e+00  3.8068300419218231e-05 7.2842407492274182e-09 0.0000000000000000e+00  3.7973299105140331e-05 -2.8333716355285762e-08 0.0000000000000000e+00  2.6808475414750831e-19 2.2607332967614386e-21 0.0000000000000000e+00  3.8090521597011408e-05 -1.1185959245128331e-08 0.0000000000000000e+00  3.8299421562833666e-05 3.0505860459995996e-08 0.0000000000000000e+00  3.6842730557922219e-05 8.5779120843158104e-08 0.0000000000000000e+00  3.8293393851821247e-05 -1.6456135723159662e-09 0.0000000000000000e+00  3.8291940835213247e-05 -1.7908125728270939e-07 0.0000000000000000e+00  3.8264795073171849e-05 5.3554806785242522e-09 0.0000000000000000e+00  3.8269730581365982e-05 -8.9484476401333794e-09 0.0000000000000000e+00  3.6935051578906563e-05 -5.7992465659825823e-07 0.0000000000000000e+00  3.8065652423204317e-05 2.3066592512831078e-08 0.0000000000000000e+00  3.8050473364229497e-05 -3.4241384060219952e-08 0.0000000000000000e+00  3.8012531332766082e-05 -2.4380329448128557e-08 0.0000000000000000e+00  3.8085301870163725e-05 -5.8509603906689632e-08 0.0000000000000000e+00  3.8262271405988802e-05 1.2139219725135216e-08 0.0000000000000000e+00  2.7865178594376327e-19 -3.3700496352761349e-21 0.0000000000000000e+00  3.5326918913617460e-05 -2.0324202261664747e-05 0.0000000000000000e+00  2.0850163380922302e-05 -3.8295572462901598e-05 0.0000000000000000e+00  8.9019097571327427e-06 -2.8756197917718141e-05 0.0000000000000000e+00  2.7341664585602843e-05 -9.6602159054806233e-06 0.0000000000000000e+00  3.8305131816522866e-05 2.0152599715301820e-09 0.0000000000000000e+00  3.8273762521683413e-05 -2.0201119179097280e-08 0.0000000000000000e+00  3.8269016903869264e-05 3.2636490190773493e-09 0.0000000000000000e+00  3.8268162384397649e-05 -7.2808602938122557e-09 0.0000000000000000e+00  3.8221194719759331e-05 -7.3288730241520713e-08 0.0000000000000000e+00  3.8043515132807146e-05 8.4657846823983976e-08 0.0000000000000000e+00  2.9724037340291251e-19 5.9311356976365790e-22 0.0000000000000000e+00  3.8016779343280337e-05 5.2926916470621869e-08 0.0000000000000000e+00  3.8269475265994036e-05 -1.1326504869895460e-08 0.0000000000000000e+00  3.8268317902292896e-05 3.2130697986533654e-10 0.0000000000000000e+00  3.8007737847479388e-05 3.4030539411601629e-08 0.000000000