<?xml version="1.0"?>
<VTKFile type="UnstructuredGrid"  version="0.1"  >
<UnstructuredGrid>
<Piece  NumberOfPoints="1079" NumberOfCells="1944">
<Points>
<DataArray  type="Float64"  NumberOfComponents="3"  format="ascii">0.08500000000000001 0.02 0  0.005 0.02 0  0.005 0.03 0  0 0.03 0  0 0 0  0.005 0 0  0.005 0.01 0  0.08500000000000001 0.01 0  0 0.015 0  0 0.0075 0  0 0.0225 0  0.04500000000000001 0.02 0  0.04500000000000001 0.01 0  0.025 0.01 0  0.025 0.02 0  0.065 0.02 0  0.065 0.01 0  0.035 0.02 0  0.035 0.01 0  0.07500000000000001 0.02 0  0.07500000000000001 0.01 0  0.015 0.02 0  0.015 0.01 0  0.05500000000000001 0.01 0  0.05500000000000001 0.02 0  0.07000000000000001 0.01 0  0.07000000000000001 0.02 0  0.05 0.01 0  0.03 0.01 0  0.03 0.02 0  0.04000000000000001 0.01 0  0.01 0.01 0  0.02 0.02 0  0.06 0.015 0  0.08500000000000001 0.015 0  0.05 0.02 0  0.07250000000000001 0.015 0  0.04000000000000001 0.02 0  0.03750000000000001 0.015 0  0.0525 0.015 0  0.02 0.01 0  0.01 0.02 0  0.0275 0.015 0  0.0125 0.015 0  0.08000000000000002 0.01 0  0.08000000000000002 0.02 0  0.0325 0.014375 0  0.04291666666666667 0.015 0  0.065 0.015 0  0.005 0.005 0  0.005 0.015 0  0.02208333333333334 0.015 0  0.07791666666666668 0.015 0  0.005 0.025 0  0.06 0.01 0  0.06 0.02 0  0.01729166666666667 0.01572916666666667 0  0.04770833333333334 0.01427083333333334 0  0.06875000000000001 0.01625 0  0.008750000000000001 0.01625 0  0.05625000000000001 0.01625 0  0 0.00375 0  0 0.01875 0  0 0.01125 0  0 0.02625 0  0.08145833333333334 0.01354166666666667 0  0.0675 0.01 0  0.0075 0.0125 0  0.0625 0.0175 0  0.0575 0.0125 0  0.0625 0.0125 0  0.08207465277777778 0.01707465277777778 0  0.06767857142857144 0.01321428571428571 0  0.0175 0.01 0  0.01875 0.01291382575757576 0  0.0475 0.02 0  0.04564168086314595 0.01679860519591141 0  0.00296875 0.0125 0  0.0025 0.03 0  0.0025 0 0  0.00296875 0.0175 0  0.01521990740740741 0.0132349537037037 0  0.0497800925925926 0.0167650462962963 0  0.0325 0.02 0  0.03474264705882353 0.01674632352941176 0  0.03750000000000001 0.02 0  0.03025735294117647 0.01674632352941176 0  0.0275 0.02 0  0.0525 0.02 0  0.0125 0.01 0  0.04020833333333334 0.01322916666666667 0  0.03750000000000001 0.01 0  0.0225 0.02 0  0.02479166666666667 0.01677083333333333 0  0.07520833333333335 0.01322916666666667 0  0.07250000000000001 0.01 0  0.07520833333333335 0.01677083333333334 0  0.07250000000000001 0.02 0  0.04020833333333334 0.01677083333333333 0  0.0225 0.01 0  0.02375 0.01262152777777778 0  0.04250000000000001 0.02 0  0.04250000000000001 0.01 0  0.07750000000000001 0.01 0  0.07750000000000001 0.02 0  0.05036151960784314 0.01294424019607843 0  0.0705560064935065 0.01284699675324675 0  0.05458333333333334 0.01291666666666666 0  0.0021875 0.024375 0  0.005 0.0275 0  0.01125 0.0175 0  0.01463848039215686 0.01705575980392157 0  0.01 0.01375 0  0.03625 0.0125 0  0.0021875 0.009375 0  0.05375000000000001 0.0175 0  0.07125000000000001 0.0175 0  0.005 0.0025 0  0.0021875 0.005625 0  0.02655220103578155 0.01234889948210923 0  0.002187499999999999 0.020625 0  0.02979166666666667 0.01302083333333333 0  0.0525 0.01 0  0.07895833333333334 0.0125 0  0.01994277885235332 0.01704213007736944 0  0.07934656179076068 0.01733823814273861 0  0.04505722114764669 0.01295786992263056 0  0.06625 0.0175 0  0.006250000000000001 0.0175 0  0.05750000000000001 0.02 0  0.05875000000000001 0.0175 0  0.005 0.0225 0  0.005 0.0075 0  0.002375 0.027375 0  0.002375 0.002625000000000001 0  0.0475 0.01 0  0.0175 0.02 0  0.0325 0.01 0  0.03375 0.0121875 0  0.04261299435028249 0.01749205508474576 0  0.08500000000000001 0.0125 0  0.08250000000000002 0.01 0  0.02121963399965531 0.01224824108143494 0  0.0675 0.02 0  0.0125 0.02 0  0.02720152243589744 0.0175 0  0.03715165441176471 0.0175 0  0.08500000000000001 0.0175 0  0.0275 0.01 0  0.0025 0.0149560546875 0  0.0075 0.01 0  0.0075 0.02 0  0.06526785714285716 0.0125 0  0.01281031447005516 0.0125 0  0.0625 0.015 0  0.06 0.0125 0  0.05750000000000001 0.01 0  0.0625 0.02 0  0.0625 0.01 0  0.08250000000000002 0.02 0  0.04260103740101855 0.01252623201412851 0  0.02240052247582197 0.01750164767101344 0  0.07293583459427785 0.01238479732953041 0  0.005234374999999999 0.012265625 0  0.03528131980640358 0.01454684009679821 0  0.0325 0.01760027210036557 0  0.02532593822924343 0.01428227733767297 0  0.08009952069819683 0.01527145502895417 0  0.01987282359856536 0.01482587683689801 0  0.04828232595121382 0.01210233572595705 0  0.01671767404878618 0.01789766427404295 0  0.05125 0.01829007549029352 0  0.05247215456215357 0.01288882122882024 0  0.07338729919678716 0.01799385040160642 0  0.03838729919678716 0.01200614959839357 0  0.07717482110586968 0.01780301674207099 0  0.04771860040890012 0.01773306039388322 0  0.03125 0.01160380747126437 0  0.06875000000000001 0.01154265873015873 0  0.07625000000000001 0.01154065860215054 0  0.01625 0.01153997817696946 0  0.068125 0.018125 0  0.05437500000000001 0.015625 0  0.066875 0.015625 0  0.07039794950204951 0.01494384850614853 0  0.05687500000000001 0.018125 0  0.006875 0.015625 0  0.008749999999999999 0.01833333333333333 0  0.010625 0.015625 0  0.05625 0.01416666666666667 0  0.05812500000000001 0.015625 0  0.0449088595298192 0.01494528408816316 0  0 0.016875 0  0 0.013125 0  0.04962452342047931 0.01478673066448802 0  0.0153754765795207 0.01521326933551198 0  0.0771774565913315 0.01322498191305479 0  0.01857756431135545 0.01840228599899994 0  0.04642243568864456 0.01159771400100006 0  0.08125000000000002 0.01155637254901961 0  0.08317650804863432 0.0118234919513657 0  0.08288217288011697 0.01511353252923977 0  0.02837253504384828 0.0117177464035174 0  0.03896057962520807 0.01831163685754031 0  0.01125 0.0114244162490927 0  0.00935910490099115 0.0119067901980177 0  0.02946078431372549 0.01495404411764706 0  0.02875 0.0185829434466942 0  0.002968749999999999 0.0225 0  0.064375 0.016875 0  0.00296875 0.0075 0  0 0.001875 0  0 0.005625 0  0 0.009375 0  0 0.020625 0  0 0.024375 0  0 0.028125 0  0.06062500000000001 0.01812500000000001 0  0.008303571428571429 0.01446428571428572 0  0.01375 0.01865917058160413 0  0.05137790313978056 0.01143372888932909 0  0.04125000000000001 0.01131513063942604 0  0.04101690263896279 0.01844430285842771 0  0.02399563533148224 0.01844349395710867 0  0.08125000000000002 0.01868815426145731 0  0.05354684380692146 0.01145463537600848 0  0.01699195823639423 0.01315138909884649 0  0.07598357371794873 0.015 0  0.04098357371794872 0.015 0  0.003744047619047619 0.00375 0  0.003344630281690141 0.02580853873239437 0  0.04625 0.0187354532243972 0  0.06388392857142858 0.01138392857142858 0  0.06375 0.01375 0  0.05875 0.01375 0  0.06375 0.02 0  0.00622802734375 0.01372802734375 0  0.003630681818181818 0.001369318181818182 0  0.003630681818181818 0.02863068181818182 0  0.06125 0.01625 0  0.06125 0.01125 0  0.05625000000000001 0.01 0  0.05875 0.01125 0  0.06125 0.01375 0  0.08337864763241221 0.0183786476324122 0  0.05213634138653413 0.01674432930673294 0  0.04375000000000001 0.01 0  0.07424178685897437 0.01529258578431373 0  0.03924178685897436 0.01529258578431372 0  0.03410139294454583 0.01843406022904556 0  0.03089860705545417 0.01843406022904556 0  0.02094160484316717 0.01850229584291991 0  0.04375000000000001 0.02 0  0.04437042160883325 0.01820701498672512 0  0.04816311705429156 0.01600061344661149 0  0.07151224904251052 0.0114127410511319 0  0.04395528506193162 0.01639387970349481 0  0.0128750358694518 0.0167500179347259 0  0.02855808448399799 0.01642839899839741 0  0.02812690373330794 0.01340955081400569 0  0.08358500641945087 0.01351822349116885 0  0.05590277777777778 0.01173611111111111 0  0.06683110430364615 0.01164926404662283 0  0.02573206694914602 0.01842532451809762 0  0.01438126661842046 0.01166701193099454 0  0.02384283211216029 0.01526549696571563 0  0.03625 0.02 0  0.004609375000000001 0.0182421875 0  0.003398437500000001 0.01943359375 0  0.001728307845744682 0.01894718251329787 0  0.004377805359085963 0.01656966216675735 0  0.04649673309852075 0.0153889662370871 0  0.03615513600614297 0.01592654988586041 0  0.03316985071935832 0.01598763605018279 0  0.03110111603888768 0.01529816275177977 0  0.01370614113484869 0.0138804542047638 0  0.04930041102671841 0.01842260568883502 0  0.07875000000000001 0.02 0  0.0745395359848485 0.01165101111925709 0  0.03860755698543604 0.01373741558556884 0  0.02605038706571737 0.01573944002207753 0  0.07559826163500957 0.01841729376139847 0  0.04437500000000001 0.01149157931286774 0  0.06874116707361365 0.01454618473032123 0  0.003761917372881356 0.0239307468220339 0  0.003984374999999999 0.01125 0  0.003768503289473684 0.01392539576480263 0  0.001796875 0.0111328125 0  0.003761917372881356 0.008930746822033899 0  0.005 0.00625 0  0.003761917372881355 0.0210692531779661 0  0.06633928571428571 0.01410714285714285 0  0.006484375 0.01125 0  0.08364120589325512 0.01657288979763549 0  0.03576267476503373 0.0184116442851204 0  0.07370875846579374 0.0137848203678562 0  0.06964285714285715 0.01758928571428571 0  0.05520833333333334 0.01833333333333333 0  0.06491071428571429 0.01839285714285714 0  0.0510098951944636 0.01559941474766356 0  0.01786087179886325 0.0115702210443714 0  0.01972197383235524 0.01160576093166696 0  0.01804697593127788 0.01433503795474974 0  0.001644074528704677 0.01642892723865279 0  0.00125 0.03 0  0.001497685185185185 0.001267746913580247 0  0.07315451164202422 0.01643443118912983 0  0.001233906745910645 0.0140625 0  0.01162635071030191 0.01362229857939618 0  0.01528023503083844 0.01845923557506155 0  0.06625 0.02 0  0.07695012019230771 0.01624387078484555 0  0.03139091092855769 0.01320776147621796 0  0.03857339107781042 0.01675295051810485 0  0.001754993120977522 0.02590789105493891 0  0.002288757784711197 0.00412546923654445 0  0.07914382119690884 0.01404430049871201 0  0.001391810103286306 0.01257390899021902 0  0.0419501201923077 0.01614675005432421 0  0.001484375 0.007018229166666667 0  0.001484375 0.02201822916666666 0  0.048
[...]
<PointData  Vectors="velocity"> 
<DataArray  type="Float64"  Name="velocity"  NumberOfComponents="3" format="ascii">2.9181930282826401e-06 2.2053933552837519e-20 0.0000000000000000e+00  5.9606414784536580e-20 -6.9048572081486448e-20 0.0000000000000000e+00  2.6056189295420441e-18 -1.4174741629268138e-04 0.0000000000000000e+00  -2.9778502051909093e-18 -1.4174741629268114e-04 0.0000000000000000e+00  -2.8951321439356092e-18 1.4174741629268125e-04 0.0000000000000000e+00  2.7917345673664807e-18 1.4174741629268111e-04 0.0000000000000000e+00  5.7687103633853728e-20 5.3085218761299412e-20 0.0000000000000000e+00  2.9970206990653072e-06 -2.1566752581125405e-20 0.0000000000000000e+00  6.9199363995180963e-21 -3.5041648738435612e-22 0.0000000000000000e+00  -7.5191896733679922e-22 5.3545910055102230e-20 0.0000000000000000e+00  3.5810983060771920e-22 -6.2876544685300187e-20 0.0000000000000000e+00  5.7302861301787983e-20 -1.8888048309553165e-22 0.0000000000000000e+00  4.8124092250284124e-20 2.9358349421535701e-22 0.0000000000000000e+00  5.8648218309424808e-20 1.7224520134278408e-22 0.0000000000000000e+00  4.7590537834050183e-20 -1.8720214273222208e-22 0.0000000000000000e+00  5.4037511000531995e-20 1.6385705624705334e-22 0.0000000000000000e+00  5.4070922230562292e-20 7.9746106068603566e-23 0.0000000000000000e+00  4.3852797534456252e-20 -8.6683145063538102e-23 0.0000000000000000e+00  6.2015348781229303e-20 -8.6513515876348631e-23 0.0000000000000000e+00  5.4788501253557919e-20 3.3830998259898422e-22 0.0000000000000000e+00  5.0313205273363078e-20 2.0096910001108372e-22 0.0000000000000000e+00  4.7325933954747117e-20 -1.1871356747993016e-22 0.0000000000000000e+00  4.4356018720199874e-20 -1.0050099905840433e-22 0.0000000000000000e+00  5.4207525517817157e-20 -6.0614132345441483e-22 0.0000000000000000e+00  5.1678730431328636e-20 2.2540017224789093e-22 0.0000000000000000e+00  5.0780965820768069e-20 8.3879273900375838e-23 0.0000000000000000e+00  5.8485687985043637e-20 -2.2411401752081302e-22 0.0000000000000000e+00  5.6087508586213218e-20 1.7556271776651654e-22 0.0000000000000000e+00  5.2783673149045171e-20 1.9669080506300242e-23 0.0000000000000000e+00  4.5924570589494203e-20 -1.2011521519670698e-22 0.0000000000000000e+00  5.0789352846857456e-20 1.7341711525819861e-22 0.0000000000000000e+00  5.2276634401093119e-20 2.9023666741058280e-22 0.0000000000000000e+00  4.7115238868486447e-20 -9.9861809861682666e-23 0.0000000000000000e+00  7.4435197502933443e-06 -1.0878955752016608e-09 0.0000000000000000e+00  7.1488848545060571e-06 1.2494393499820663e-23 0.0000000000000000e+00  4.7657925299160388e-20 2.8818359020075465e-23 0.0000000000000000e+00  7.4433824181697794e-06 2.5093820730583500e-09 0.0000000000000000e+00  5.7229311083595068e-20 -5.0167360837702728e-22 0.0000000000000000e+00  7.4371865365251901e-06 -3.6202636505854590e-09 0.0000000000000000e+00  7.4357661177515942e-06 -4.0518328461164045e-10 0.0000000000000000e+00  4.9393289250965972e-20 2.3494080370079955e-23 0.0000000000000000e+00  5.5517996427233830e-20 -1.0301190743334402e-21 0.0000000000000000e+00  7.4367253109307901e-06 -1.9233857786435148e-10 0.0000000000000000e+00  7.4212149464911046e-06 -2.8649990618633695e-08 0.0000000000000000e+00  4.7265036627989054e-20 -1.8693691244468328e-22 0.0000000000000000e+00  5.1956732272717834e-20 9.2647691751015751e-22 0.0000000000000000e+00  7.4350040729242446e-06 2.1830220126773930e-10 0.0000000000000000e+00  7.4425413628300866e-06 -7.2561840356951650e-10 0.0000000000000000e+00  7.4405338115607393e-06 -6.2616229990938944e-10 0.0000000000000000e+00  -3.8066702761618650e-21 6.5484680829137441e-20 0.0000000000000000e+00  5.6226251291261784e-06 -2.9171170270269773e-07 0.0000000000000000e+00  7.4338371723945179e-06 1.8254663289685873e-09 0.0000000000000000e+00  7.4318967340218714e-06 3.8260856242799325e-10 0.0000000000000000e+00  -6.0184322936410694e-21 -8.4309646512406658e-20 0.0000000000000000e+00  4.9113848870336470e-20 1.2243121249030216e-22 0.0000000000000000e+00  5.5768612765214638e-20 6.8048870581307149e-22 0.0000000000000000e+00  7.4373324014147379e-06 -2.6035564684304718e-09 0.0000000000000000e+00  7.4397134345999936e-06 1.9674740978190693e-09 0.0000000000000000e+00  7.4405901273571928e-06 -1.8981059318691325e-09 0.0000000000000000e+00  7.3259487753117480e-06 -2.3601960483260534e-07 0.0000000000000000e+00  7.4352997922700645e-06 -5.5939402237645494e-09 0.0000000000000000e+00  -3.4361681626898274e-20 9.1045309135604289e-21 0.0000000000000000e+00  3.1513565312891369e-21 -3.1821189219464427e-20 0.0000000000000000e+00  4.2476966947398745e-21 3.1533748344001103e-20 0.0000000000000000e+00  -4.0757521069170836e-20 8.5090263284760175e-21 0.0000000000000000e+00  7.3635756145892587e-06 -7.1143448190519443e-08 0.0000000000000000e+00  4.5971106793071848e-20 -1.3387930445108467e-22 0.0000000000000000e+00  7.3341366819028848e-06 4.2315172478426969e-07 0.0000000000000000e+00  7.4267305828244466e-06 2.1074087514114900e-10 0.0000000000000000e+00  7.4300537683671924e-06 6.2723411863451078e-10 0.0000000000000000e+00  7.4367098270438988e-06 -3.1927791647539147e-09 0.0000000000000000e+00  7.3555478427409165e-06 1.3603185370807937e-07 0.0000000000000000e+00  7.4358903378650064e-06 -1.5068116843292807e-09 0.0000000000000000e+00  4.9708731830707044e-20 -9.2394900099517125e-24 0.0000000000000000e+00  7.4299268805306906e-06 -1.0969583972528286e-10 0.0000000000000000e+00  5.7192360729275992e-20 8.7030550723616146e-22 0.0000000000000000e+00  7.4425302297387167e-06 -5.6696899250316476e-09 0.0000000000000000e+00  3.5580325631637185e-06 2.9045371039691276e-06 0.0000000000000000e+00  -1.6451519166933612e-19 -1.4174741629268187e-04 0.0000000000000000e+00  -2.3914478691058206e-19 1.4174741629268192e-04 0.0000000000000000e+00  3.6833431587548241e-06 -3.6203617908962242e-06 0.0000000000000000e+00  7.4270675212158679e-06 -1.0371328545286618e-08 0.0000000000000000e+00  7.4334938760359060e-06 6.6808547634332225e-09 0.0000000000000000e+00  5.0978693438913939e-20 4.4306250724200043e-22 0.0000000000000000e+00  7.4328559726411078e-06 -2.2934238047650083e-09 0.0000000000000000e+00  5.4122118813936929e-20 3.2600147327889798e-22 0.0000000000000000e+00  7.4342905092382343e-06 -2.3622682251647738e-09 0.0000000000000000e+00  5.9190080174508379e-20 1.0119600705455244e-22 0.0000000000000000e+00  5.0718308796868933e-20 -7.7284940993041791e-24 0.0000000000000000e+00  5.6149203691616849e-20 2.8768255740572779e-22 0.0000000000000000e+00  7.4366906178935160e-06 2.3010340377965121e-09 0.0000000000000000e+00  5.1050433211956708e-20 1.7119140572600263e-22 0.0000000000000000e+00  5.3678934349212818e-20 1.4426474150789852e-22 0.0000000000000000e+00  7.4320024295134989e-06 5.7185844437698321e-10 0.0000000000000000e+00  7.4392427535974414e-06 1.1854245335231036e-09 0.0000000000000000e+00  5.4237300938935962e-20 5.0097450394338633e-23 0.0000000000000000e+00  7.4378194804029519e-06 5.1033323834839737e-09 0.0000000000000000e+00  5.8270788489809221e-20 6.1271551863630860e-22 0.0000000000000000e+00  7.4412588107586549e-06 -9.4465973671588725e-09 0.0000000000000000e+00  4.8539671251625447e-20 1.7023636637687911e-23 0.0000000000000000e+00  7.4255842289392719e-06 5.0100711456281571e-09 0.0000000000000000e+00  5.4275353980368767e-20 -7.3360934770178374e-24 0.0000000000000000e+00  5.2341953912177326e-20 4.5618594550704348e-22 0.0000000000000000e+00  5.6938017231668334e-20 9.0475034556659153e-22 0.0000000000000000e+00  5.6707046487881877e-20 -3.4896389673483744e-22 0.0000000000000000e+00  7.4382827149772797e-06 5.6339730262488370e-09 0.0000000000000000e+00  7.4400228677352567e-06 8.7957231202436218e-09 0.0000000000000000e+00  7.4378523527214208e-06 9.1861461029012208e-10 0.0000000000000000e+00  -1.5520381148418850e-06 -8.1725327898296115e-06 0.0000000000000000e+00  1.1326252314081861e-20 -1.1274516324905077e-19 0.0000000000000000e+00  7.4642001292140211e-06 -6.2905567926325024e-08 0.0000000000000000e+00  7.4484129060543589e-06 -2.0702184004436740e-08 0.0000000000000000e+00  7.3497791517767696e-06 1.8644713590676117e-08 0.0000000000000000e+00  7.4201264333583686e-06 -7.9690005890662062e-09 0.0000000000000000e+00  1.2485768632279495e-06 6.6478835236067288e-06 0.0000000000000000e+00  7.4265953130707082e-06 -1.2859066590429615e-11 0.0000000000000000e+00  7.4423825049534772e-06 -1.5414970287342581e-12 0.0000000000000000e+00  2.0782563074988553e-20 5.9599901555833099e-20 0.0000000000000000e+00  -1.3697981365327202e-06 7.0683141116404058e-06 0.0000000000000000e+00  7.4255650742633881e-06 -5.0909914833191400e-09 0.0000000000000000e+00  1.2430240144429435e-06 -7.6547265580841499e-06 0.0000000000000000e+00  7.4383648203537714e-06 -1.2353688567350004e-09 0.0000000000000000e+00  4.7993427599351268e-20 -3.9933365582042905e-22 0.0000000000000000e+00  7.4239294115072544e-06 -2.2679492375697264e-08 0.0000000000000000e+00  7.4310251041127817e-06 6.5164298445620637e-11 0.0000000000000000e+00  7.4277730435976055e-06 3.4291365628407754e-08 0.0000000000000000e+00  7.4401960749143605e-06 -1.6550660016176697e-09 0.0000000000000000e+00  7.4369847238012558e-06 -8.7857400769959400e-09 0.0000000000000000e+00  7.4234120261302230e-06 -1.3679356695304194e-06 0.0000000000000000e+00  5.4903788875970480e-20 -7.4024920555471272e-22 0.0000000000000000e+00  7.4234566249846211e-06 -2.6444625086373986e-09 0.0000000000000000e+00  6.2924781485925353e-22 -6.7150069296161603e-20 0.0000000000000000e+00  5.8650603051278666e-22 5.9018614625051998e-20 0.0000000000000000e+00  -1.6978487384820713e-05 -1.8672777613300439e-05 0.0000000000000000e+00  -1.3817327070149284e-05 1.5348098392101442e-05 0.0000000000000000e+00  4.9471423259144444e-20 1.4448429690170690e-23 0.0000000000000000e+00  5.8498013091373783e-20 8.1630806153495979e-22 0.0000000000000000e+00  4.9520639550995794e-20 8.0775084111267929e-23 0.0000000000000000e+00  7.4238102437656119e-06 9.0489833721570892e-09 0.0000000000000000e+00  7.4269141204140157e-06 5.4620138392985086e-09 0.0000000000000000e+00  6.7561803990953399e-06 -1.8468189291144094e-21 0.0000000000000000e+00  5.0501423659479558e-20 -1.7375805488899216e-21 0.0000000000000000e+00  7.4267895368354963e-06 2.0978246168634403e-09 0.0000000000000000e+00  5.3691903248836059e-20 3.6002468397284393e-22 0.0000000000000000e+00  4.9974071009371931e-20 -9.9223379939188048e-23 0.0000000000000000e+00  7.4340858390719187e-06 -9.4576094571272551e-10 0.0000000000000000e+00  7.4421618873480823e-06 7.9552917133197654e-10 0.0000000000000000e+00  6.7484660810375311e-06 2.2264624281876894e-21 0.0000000000000000e+00  5.3061693606744581e-20 -6.4832485628801055e-22 0.0000000000000000e+00  2.7657141972818208e-06 -2.6897947846998076e-07 0.0000000000000000e+00  5.3039648337641286e-20 1.7431031123359644e-21 0.0000000000000000e+00  6.0014865735831803e-20 -2.4330096095315068e-21 0.0000000000000000e+00  7.4344082695292878e-06 -3.3313113785911035e-09 0.0000000000000000e+00  7.4086407072298467e-06 -8.8262898908514739e-09 0.0000000000000000e+00  7.4441943128563625e-06 5.0979742158114031e-11 0.0000000000000000e+00  7.4301486250421364e-06 4.6856852781142059e-09 0.0000000000000000e+00  5.5950117137104583e-20 5.8586588681028711e-23 0.0000000000000000e+00  5.9785456857454157e-20 1.6951128413649216e-22 0.0000000000000000e+00  5.2637810769263398e-20 -9.7154818756914359e-22 0.0000000000000000e+00  4.7501839952407686e-20 9.9196252023800147e-22 0.0000000000000000e+00  7.4287633072907677e-06 -1.1976826486687243e-09 0.0000000000000000e+00  7.4296845529976626e-06 2.8223071125503336e-09 0.0000000000000000e+00  7.4279431247747224e-06 -2.4567524521044502e-09 0.0000000000000000e+00  6.7368471100239698e-06 2.0099003125657734e-06 0.0000000000000000e+00  7.4382794362245763e-06 -2.1384598890680212e-09 0.0000000000000000e+00  7.4261358719990103e-06 2.4062582212790076e-09 0.0000000000000000e+00  7.4364533110471853e-06 2.1845523242432668e-09 0.0000000000000000e+00  7.3950854448089917e-06 8.3151326543624947e-09 0.0000000000000000e+00  7.4330705510772050e-06 5.2457358475111978e-10 0.0000000000000000e+00  7.4095531963883504e-06 2.0416929732797765e-09 0.0000000000000000e+00  7.4267898889303238e-06 1.3843067545863533e-09 0.0000000000000000e+00  7.3950177660891254e-06 5.4347221531122374e-10 0.0000000000000000e+00  7.4353930888886311e-06 -7.1361351071137824e-09 0.0000000000000000e+00  7.4132112327595002e-06 4.3544455306815668e-09 0.0000000000000000e+00  7.4063605213877219e-06 -2.7395131619044285e-09 0.0000000000000000e+00  7.4234058558942691e-06 3.0450783394882366e-09 0.0000000000000000e+00  7.4338914668081925e-06 9.2745481327157991e-09 0.0000000000000000e+00  7.3837886547280198e-06 -8.5962739295661889e-09 0.0000000000000000e+00  7.3831453028785179e-06 8.0405700230147464e-09 0.0000000000000000e+00  7.3952585118097340e-06 -1.1446537196591890e-09 0.0000000000000000e+00  7.3801134182473498e-06 -5.3420853957774257e-09 0.0000000000000000e+00  7.3988452987827177e-06 -4.5214175269123042e-09 0.0000000000000000e+00  7.4349332302720206e-06 -2.0243495190857763e-09 0.0000000000000000e+00  7.4392010240022939e-06 -1.3741239693763001e-09 0.0000000000000000e+00  7.4424654372717589e-06 1.7459543397160713e-09 0.0000000000000000e+00  7.4063825105572293e-06 -7.0164222966641067e-09 0.0000000000000000e+00  6.8162242367523926e-06 -4.1658565290143253e-07 0.0000000000000000e+00  7.6131953983073974e-06 -2.2557470570451912e-07 0.0000000000000000e+00  7.3909313690480128e-06 -7.1995966388607494e-08 0.0000000000000000e+00  7.4376157444977412e-06 -2.2686040050535415e-09 0.0000000000000000e+00  7.4415759810640290e-06 -4.9945590140480086e-09 0.0000000000000000e+00  7.4417682580820795e-06 -1.1787801956437480e-09 0.0000000000000000e+00  4.8536423958458504e-21 -1.9111216933643037e-20 0.0000000000000000e+00  7.0473643331087560e-21 1.5246747281682612e-20 0.0000000000000000e+00  7.4377949144536947e-06 3.5808171494140939e-09 0.0000000000000000e+00  7.4361773154353851e-06 -1.1762540588231293e-08 0.0000000000000000e+00  7.4429146369852252e-06 1.4465966045454732e-09 0.0000000000000000e+00  7.3853721872885778e-06 3.3175740183787726e-09 0.0000000000000000e+00  7.3997512855697957e-06 3.9806837871089455e-09 0.0000000000000000e+00  7.4403885946513174e-06 -1.0002825756193479e-07 0.0000000000000000e+00  7.3459986304267741e-06 -4.6172548628638208e-07 0.0000000000000000e+00  7.2478967540748798e-06 7.9369014342218336e-09 0.0000000000000000e+00  7.3895513413380033e-06 6.4475603291491670e-09 0.0000000000000000e+00  7.3913631050977599e-06 -6.3897400703053316e-10 0.0000000000000000e+00  7.1039216415654088e-06 3.2136573656672725e-09 0.0000000000000000e+00  7.4122637902319832e-06 9.7820590150336339e-08 0.0000000000000000e+00  7.4359856262685287e-06 -1.0352878367986755e-09 0.0000000000000000e+00  7.3628605787277379e-06 8.7378850246425392e-09 0.0000000000000000e+00  6.0017292257889677e-08 -8.7490467833164062e-06 0.0000000000000000e+00  7.4372571629919554e-06 4.5963543986345803e-09 0.0000000000000000e+00  8.5557295106108930e-08 7.5866529931021494e-06 0.0000000000000000e+00  -3.2483658484079454e-19 -3.1995353956964858e-19 0.0000000000000000e+00  -6.0985926520748834e-21 4.4704102417069842e-20 0.0000000000000000e+00  2.8433505832151410e-21 5.1395226076890208e-20 0.0000000000000000e+00  2.7609041350970320e-21 -5.2009918246491645e-20 0.0000000000000000e+00  -6.1313229337989284e-21 -5.5285827131881866e-20 0.0000000000000000e+00  -3.4228794329272654e-19 2.7318028973102960e-19 0.0000000000000000e+00  7.4125203659458002e-06 -5.1474198117643260e-09 0.0000000000000000e+00  7.1495933206540132e-06 -3.7154499441101883e-09 0.0000000000000000e+00  7.1501157963469689e-06 -1.7116589533152013e-08 0.0000000000000000e+00  7.1425497623278861e-06 2.4941366844921494e-09 0.0000000000000000e+00  7.1462068776120988e-06 -9.9093167235279614e-10 0.0000000000000000e+00  7.1401593629157066e-06 7.8866022958931363e-09 0.0000000000000000e+00  7.3741659016342662e-06 9.7690054149452625e-09 0.0000000000000000e+00  7.4060290544342362e-06 1.0779686238749041e-07 0.0000000000000000e+00  7.3765409328999321e-06 -1.2799695418855124e-09 0.0000000000000000e+00  7.4280337936352577e-06 -4.1920084785934142e-09 0.0000000000000000e+00  7.4389185856142175e-06 2.0917610830139671e-09 0.0000000000000000e+00  7.4413314765962998e-06 -1.6375661989389909e-09 0.0000000000000000e+00  -1.3364616504603481e-06 1.0977937634452692e-05 0.0000000000000000e+00  -2.7321069564288141e-06 -1.1426890308889153e-05 0.0000000000000000e+00  7.1633337944545908e-06 -2.4383462223926413e-08 0.0000000000000000e+00  7.3614582170154246e-06 9.2101157706322030e-09 0.0000000000000000e+00  7.4421590017982781e-06 -1.4943626052123386e-09 0.0000000000000000e+00  7.4405593664459804e-06 -1.6987118415024850e-09 0.0000000000000000e+00  5.3299247472721968e-20 6.0393573413766134e-22 0.0000000000000000e+00  6.5819216043999576e-06 4.8072057898601783e-07 0.0000000000000000e+00  3.0538609721891382e-05 3.5689348593725517e-05 0.0000000000000000e+00  3.0979978624846933e-05 -3.8045754288776424e-05 0.0000000000000000e+00  7.4449145510777293e-06 -1.1958908329680250e-09 0.0000000000000000e+00  7.0889554718247519e-06 7.1373642838197070e-09 0.0000000000000000e+00  5.2075399038976136e-20 1.5190439946192730e-22 0.0000000000000000e+00  7.1210693298589383e-06 -1.1467652987830864e-08 0.0000000000000000e+00  7.4449845385787940e-06 1.3133233561179550e-09 0.0000000000000000e+00  7.3433845096779587e-06 5.9097840578462997e-07 0.0000000000000000e+00  7.4322004268494532e-06 3.0407189087497548e-10 0.0000000000000000e+00  5.0196328054230655e-20 -5.1208754698977317e-22 0.0000000000000000e+00  7.4410359302527928e-06 2.9877282870800285e-09 0.0000000000000000e+00  7.4381805516408648e-06 -3.3168553538310111e-09 0.0000000000000000e+00  7.3769398675731926e-06 -2.5187071964598831e-09 0.0000000000000000e+00  7.3969015423486813e-06 1.4109809527678548e-09 0.0000000000000000e+00  7.3785768488411789e-06 -5.5836073420585784e-09 0.0000000000000000e+00  5.2960501037789959e-20 4.4602830667906378e-22 0.0000000000000000e+00  7.4012418501985220e-06 -2.1548441584956772e-09 0.0000000000000000e+00  7.4418093335710251e-06 5.9250207948419194e-09 0.0000000000000000e+00  7.1587404202626897e-06 1.6783294416532277e-08 0.0000000000000000e+00  7.4406337581914847e-06 -3.2155173772878474e-10 0.0000000000000000e+00  7.4415335722974230e-06 -3.6625219480760276e-08 0.0000000000000000e+00  7.4350828961973798e-06 1.0294436314234982e-09 0.0000000000000000e+00  7.4360331816606175e-06 -1.7464429390424192e-09 0.0000000000000000e+00  7.1769287897023216e-06 -1.1246290748226999e-07 0.0000000000000000e+00  7.3963610375188924e-06 4.5077536753232905e-09 0.0000000000000000e+00  7.3934539808972238e-06 -6.6220410351651315e-09 0.0000000000000000e+00  7.3860656450377710e-06 -4.7789167277600094e-09 0.0000000000000000e+00  7.3991310967597311e-06 -1.1966743353336137e-08 0.0000000000000000e+00  7.4345917174738932e-06 2.3046547286499962e-09 0.0000000000000000e+00  5.6065074048745163e-20 -6.3862604024449548e-22 0.0000000000000000e+00  6.8815307200727404e-06 -3.9776190038817921e-06 0.0000000000000000e+00  4.0637998454116505e-06 -7.4883931702529475e-06 0.0000000000000000e+00  1.7330153302100850e-06 -5.6281861305926995e-06 0.0000000000000000e+00  5.3191944795273168e-06 -1.9033132362439768e-06 0.0000000000000000e+00  7.4429158902453594e-06 3.8865927051812173e-10 0.0000000000000000e+00  7.4368192278106301e-06 -3.9245594303305779e-09 0.0000000000000000e+00  7.4358990009190714e-06 6.3217035692369157e-10 0.0000000000000000e+00  7.4357322955086346e-06 -1.4211527910978542e-09 0.0000000000000000e+00  7.4260008866928905e-06 -1.5746627211058706e-08 0.0000000000000000e+00  7.3921367722371691e-06 1.6466870825582595e-08 0.0000000000000000e+00  5.4687081686683033e-20 1.1937667188039726e-22 0.0000000000000000e+00  7.3868497240528130e-06 1.0308398331742078e-08 0.0000000000000000e+00  7.4359861786832262e-06 -2.2023547377088503e-09 0.0000000000000000e+00  7.4357694537742051e-06 3.7906323037886480e-11 0.0000000000000000e+00  7.3851262505622223e-06 6.6263969958107819e-09 0.000000