<?xml version="1.0"?>
<VTKFile type="UnstructuredGrid"  version="0.1"  >
<UnstructuredGrid>
<Piece  NumberOfPoints="1079" NumberOfCells="1944">
<Points>
<DataArray  type="Float64"  NumberOfComponents="3"  format="ascii">0.08500000000000001 0.02 0  0.005 0.02 0  0.005 0.03 0  0 0.03 0  0 0 0  0.005 0 0  0.005 0.01 0  0.08500000000000001 0.01 0  0 0.015 0  0 0.0075 0  0 0.0225 0  0.04500000000000001 0.02 0  0.04500000000000001 0.01 0  0.025 0.01 0  0.025 0.02 0  0.065 0.02 0  0.065 0.01 0  0.035 0.02 0  0.035 0.01 0  0.07500000000000001 0.02 0  0.07500000000000001 0.01 0  0.015 0.02 0  0.015 0.01 0  0.05500000000000001 0.01 0  0.05500000000000001 0.02 0  0.07000000000000001 0.01 0  0.07000000000000001 0.02 0  0.05 0.01 0  0.03 0.01 0  0.03 0.02 0  0.04000000000000001 0.01 0  0.01 0.01 0  0.02 0.02 0  0.06 0.015 0  0.08500000000000001 0.015 0  0.05 0.02 0  0.07250000000000001 0.015 0  0.04000000000000001 0.02 0  0.03750000000000001 0.015 0  0.0525 0.015 0  0.02 0.01 0  0.01 0.02 0  0.0275 0.015 0  0.0125 0.015 0  0.08000000000000002 0.01 0  0.08000000000000002 0.02 0  0.0325 0.014375 0  0.04291666666666667 0.015 0  0.065 0.015 0  0.005 0.005 0  0.005 0.015 0  0.02208333333333334 0.015 0  0.07791666666666668 0.015 0  0.005 0.025 0  0.06 0.01 0  0.06 0.02 0  0.01729166666666667 0.01572916666666667 0  0.04770833333333334 0.01427083333333334 0  0.06875000000000001 0.01625 0  0.008750000000000001 0.01625 0  0.05625000000000001 0.01625 0  0 0.00375 0  0 0.01875 0  0 0.01125 0  0 0.02625 0  0.08145833333333334 0.01354166666666667 0  0.0675 0.01 0  0.0075 0.0125 0  0.0625 0.0175 0  0.0575 0.0125 0  0.0625 0.0125 0  0.08207465277777778 0.01707465277777778 0  0.06767857142857144 0.01321428571428571 0  0.0175 0.01 0  0.01875 0.01291382575757576 0  0.0475 0.02 0  0.04564168086314595 0.01679860519591141 0  0.00296875 0.0125 0  0.0025 0.03 0  0.0025 0 0  0.00296875 0.0175 0  0.01521990740740741 0.0132349537037037 0  0.0497800925925926 0.0167650462962963 0  0.0325 0.02 0  0.03474264705882353 0.01674632352941176 0  0.03750000000000001 0.02 0  0.03025735294117647 0.01674632352941176 0  0.0275 0.02 0  0.0525 0.02 0  0.0125 0.01 0  0.04020833333333334 0.01322916666666667 0  0.03750000000000001 0.01 0  0.0225 0.02 0  0.02479166666666667 0.01677083333333333 0  0.07520833333333335 0.01322916666666667 0  0.07250000000000001 0.01 0  0.07520833333333335 0.01677083333333334 0  0.07250000000000001 0.02 0  0.04020833333333334 0.01677083333333333 0  0.0225 0.01 0  0.02375 0.01262152777777778 0  0.04250000000000001 0.02 0  0.04250000000000001 0.01 0  0.07750000000000001 0.01 0  0.07750000000000001 0.02 0  0.05036151960784314 0.01294424019607843 0  0.0705560064935065 0.01284699675324675 0  0.05458333333333334 0.01291666666666666 0  0.0021875 0.024375 0  0.005 0.0275 0  0.01125 0.0175 0  0.01463848039215686 0.01705575980392157 0  0.01 0.01375 0  0.03625 0.0125 0  0.0021875 0.009375 0  0.05375000000000001 0.0175 0  0.07125000000000001 0.0175 0  0.005 0.0025 0  0.0021875 0.005625 0  0.02655220103578155 0.01234889948210923 0  0.002187499999999999 0.020625 0  0.02979166666666667 0.01302083333333333 0  0.0525 0.01 0  0.07895833333333334 0.0125 0  0.01994277885235332 0.01704213007736944 0  0.07934656179076068 0.01733823814273861 0  0.04505722114764669 0.01295786992263056 0  0.06625 0.0175 0  0.006250000000000001 0.0175 0  0.05750000000000001 0.02 0  0.05875000000000001 0.0175 0  0.005 0.0225 0  0.005 0.0075 0  0.002375 0.027375 0  0.002375 0.002625000000000001 0  0.0475 0.01 0  0.0175 0.02 0  0.0325 0.01 0  0.03375 0.0121875 0  0.04261299435028249 0.01749205508474576 0  0.08500000000000001 0.0125 0  0.08250000000000002 0.01 0  0.02121963399965531 0.01224824108143494 0  0.0675 0.02 0  0.0125 0.02 0  0.02720152243589744 0.0175 0  0.03715165441176471 0.0175 0  0.08500000000000001 0.0175 0  0.0275 0.01 0  0.0025 0.0149560546875 0  0.0075 0.01 0  0.0075 0.02 0  0.06526785714285716 0.0125 0  0.01281031447005516 0.0125 0  0.0625 0.015 0  0.06 0.0125 0  0.05750000000000001 0.01 0  0.0625 0.02 0  0.0625 0.01 0  0.08250000000000002 0.02 0  0.04260103740101855 0.01252623201412851 0  0.02240052247582197 0.01750164767101344 0  0.07293583459427785 0.01238479732953041 0  0.005234374999999999 0.012265625 0  0.03528131980640358 0.01454684009679821 0  0.0325 0.01760027210036557 0  0.02532593822924343 0.01428227733767297 0  0.08009952069819683 0.01527145502895417 0  0.01987282359856536 0.01482587683689801 0  0.04828232595121382 0.01210233572595705 0  0.01671767404878618 0.01789766427404295 0  0.05125 0.01829007549029352 0  0.05247215456215357 0.01288882122882024 0  0.07338729919678716 0.01799385040160642 0  0.03838729919678716 0.01200614959839357 0  0.07717482110586968 0.01780301674207099 0  0.04771860040890012 0.01773306039388322 0  0.03125 0.01160380747126437 0  0.06875000000000001 0.01154265873015873 0  0.07625000000000001 0.01154065860215054 0  0.01625 0.01153997817696946 0  0.068125 0.018125 0  0.05437500000000001 0.015625 0  0.066875 0.015625 0  0.07039794950204951 0.01494384850614853 0  0.05687500000000001 0.018125 0  0.006875 0.015625 0  0.008749999999999999 0.01833333333333333 0  0.010625 0.015625 0  0.05625 0.01416666666666667 0  0.05812500000000001 0.015625 0  0.0449088595298192 0.01494528408816316 0  0 0.016875 0  0 0.013125 0  0.04962452342047931 0.01478673066448802 0  0.0153754765795207 0.01521326933551198 0  0.0771774565913315 0.01322498191305479 0  0.01857756431135545 0.01840228599899994 0  0.04642243568864456 0.01159771400100006 0  0.08125000000000002 0.01155637254901961 0  0.08317650804863432 0.0118234919513657 0  0.08288217288011697 0.01511353252923977 0  0.02837253504384828 0.0117177464035174 0  0.03896057962520807 0.01831163685754031 0  0.01125 0.0114244162490927 0  0.00935910490099115 0.0119067901980177 0  0.02946078431372549 0.01495404411764706 0  0.02875 0.0185829434466942 0  0.002968749999999999 0.0225 0  0.064375 0.016875 0  0.00296875 0.0075 0  0 0.001875 0  0 0.005625 0  0 0.009375 0  0 0.020625 0  0 0.024375 0  0 0.028125 0  0.06062500000000001 0.01812500000000001 0  0.008303571428571429 0.01446428571428572 0  0.01375 0.01865917058160413 0  0.05137790313978056 0.01143372888932909 0  0.04125000000000001 0.01131513063942604 0  0.04101690263896279 0.01844430285842771 0  0.02399563533148224 0.01844349395710867 0  0.08125000000000002 0.01868815426145731 0  0.05354684380692146 0.01145463537600848 0  0.01699195823639423 0.01315138909884649 0  0.07598357371794873 0.015 0  0.04098357371794872 0.015 0  0.003744047619047619 0.00375 0  0.003344630281690141 0.02580853873239437 0  0.04625 0.0187354532243972 0  0.06388392857142858 0.01138392857142858 0  0.06375 0.01375 0  0.05875 0.01375 0  0.06375 0.02 0  0.00622802734375 0.01372802734375 0  0.003630681818181818 0.001369318181818182 0  0.003630681818181818 0.02863068181818182 0  0.06125 0.01625 0  0.06125 0.01125 0  0.05625000000000001 0.01 0  0.05875 0.01125 0  0.06125 0.01375 0  0.08337864763241221 0.0183786476324122 0  0.05213634138653413 0.01674432930673294 0  0.04375000000000001 0.01 0  0.07424178685897437 0.01529258578431373 0  0.03924178685897436 0.01529258578431372 0  0.03410139294454583 0.01843406022904556 0  0.03089860705545417 0.01843406022904556 0  0.02094160484316717 0.01850229584291991 0  0.04375000000000001 0.02 0  0.04437042160883325 0.01820701498672512 0  0.04816311705429156 0.01600061344661149 0  0.07151224904251052 0.0114127410511319 0  0.04395528506193162 0.01639387970349481 0  0.0128750358694518 0.0167500179347259 0  0.02855808448399799 0.01642839899839741 0  0.02812690373330794 0.01340955081400569 0  0.08358500641945087 0.01351822349116885 0  0.05590277777777778 0.01173611111111111 0  0.06683110430364615 0.01164926404662283 0  0.02573206694914602 0.01842532451809762 0  0.01438126661842046 0.01166701193099454 0  0.02384283211216029 0.01526549696571563 0  0.03625 0.02 0  0.004609375000000001 0.0182421875 0  0.003398437500000001 0.01943359375 0  0.001728307845744682 0.01894718251329787 0  0.004377805359085963 0.01656966216675735 0  0.04649673309852075 0.0153889662370871 0  0.03615513600614297 0.01592654988586041 0  0.03316985071935832 0.01598763605018279 0  0.03110111603888768 0.01529816275177977 0  0.01370614113484869 0.0138804542047638 0  0.04930041102671841 0.01842260568883502 0  0.07875000000000001 0.02 0  0.0745395359848485 0.01165101111925709 0  0.03860755698543604 0.01373741558556884 0  0.02605038706571737 0.01573944002207753 0  0.07559826163500957 0.01841729376139847 0  0.04437500000000001 0.01149157931286774 0  0.06874116707361365 0.01454618473032123 0  0.003761917372881356 0.0239307468220339 0  0.003984374999999999 0.01125 0  0.003768503289473684 0.01392539576480263 0  0.001796875 0.0111328125 0  0.003761917372881356 0.008930746822033899 0  0.005 0.00625 0  0.003761917372881355 0.0210692531779661 0  0.06633928571428571 0.01410714285714285 0  0.006484375 0.01125 0  0.08364120589325512 0.01657288979763549 0  0.03576267476503373 0.0184116442851204 0  0.07370875846579374 0.0137848203678562 0  0.06964285714285715 0.01758928571428571 0  0.05520833333333334 0.01833333333333333 0  0.06491071428571429 0.01839285714285714 0  0.0510098951944636 0.01559941474766356 0  0.01786087179886325 0.0115702210443714 0  0.01972197383235524 0.01160576093166696 0  0.01804697593127788 0.01433503795474974 0  0.001644074528704677 0.01642892723865279 0  0.00125 0.03 0  0.001497685185185185 0.001267746913580247 0  0.07315451164202422 0.01643443118912983 0  0.001233906745910645 0.0140625 0  0.01162635071030191 0.01362229857939618 0  0.01528023503083844 0.01845923557506155 0  0.06625 0.02 0  0.07695012019230771 0.01624387078484555 0  0.03139091092855769 0.01320776147621796 0  0.03857339107781042 0.01675295051810485 0  0.001754993120977522 0.02590789105493891 0  0.002288757784711197 0.00412546923654445 0  0.07914382119690884 0.01404430049871201 0  0.001391810103286306 0.01257390899021902 0  0.0419501201923077 0.01614675005432421 0  0.001484375 0.007018229166666667 0  0.001484375 0.02201822916666666 0  0.048
[...]
<PointData  Vectors="velocity"> 
<DataArray  type="Float64"  Name="velocity"  NumberOfComponents="3" format="ascii">5.1532976482714434e-07 3.7981774452109062e-21 0.0000000000000000e+00  1.0762269336096884e-20 -1.2048819204757114e-20 0.0000000000000000e+00  4.6141168543973700e-19 -2.5353644939701277e-05 0.0000000000000000e+00  -5.2215776167410036e-19 -2.5353644939701236e-05 0.0000000000000000e+00  -5.1698788284564451e-19 2.5353644939701260e-05 0.0000000000000000e+00  4.8855354928913419e-19 2.5353644939701219e-05 0.0000000000000000e+00  1.0068405355095724e-20 9.6972119201721014e-21 0.0000000000000000e+00  5.2925943299553526e-07 -3.9344751330431481e-21 0.0000000000000000e+00  1.1869963896983594e-21 -7.7344179647898422e-23 0.0000000000000000e+00  -1.3177345786471811e-22 9.4167274666199331e-21 0.0000000000000000e+00  5.2111018637581568e-23 -1.1185884842624370e-20 0.0000000000000000e+00  1.0195946092349924e-20 -3.5656145349462071e-23 0.0000000000000000e+00  8.8983289625066544e-21 5.2049666682250840e-23 0.0000000000000000e+00  9.7203991457287404e-21 2.7788326817616641e-23 0.0000000000000000e+00  8.2551798368602433e-21 -3.2823784519904756e-23 0.0000000000000000e+00  9.7772150253880838e-21 3.1056866863868193e-23 0.0000000000000000e+00  9.4593199876553801e-21 1.4105775599568127e-23 0.0000000000000000e+00  7.9443116343354096e-21 -1.4925842060973876e-23 0.0000000000000000e+00  1.0763079148018537e-20 -1.8925081903235139e-23 0.0000000000000000e+00  9.3830156423730198e-21 5.9147227892936453e-23 0.0000000000000000e+00  8.7007798593033889e-21 3.4726278310738731e-23 0.0000000000000000e+00  7.8876556591245205e-21 -2.0842840091896134e-23 0.0000000000000000e+00  8.2025842110521510e-21 -1.9619870905630321e-23 0.0000000000000000e+00  9.2496968145481650e-21 -1.0944522257402784e-22 0.0000000000000000e+00  8.8812623493811054e-21 3.8418254332932350e-23 0.0000000000000000e+00  8.8866690186344130e-21 1.6294115706998684e-23 0.0000000000000000e+00  9.9727633724496961e-21 -3.6298245046869904e-23 0.0000000000000000e+00  9.7965584931235335e-21 2.9571553954398050e-23 0.0000000000000000e+00  9.2675281392443620e-21 4.8324896071513523e-24 0.0000000000000000e+00  7.6873737725892467e-21 -2.1360512737903175e-23 0.0000000000000000e+00  9.1157638309739980e-21 2.9770853788906486e-23 0.0000000000000000e+00  9.2270679932484960e-21 5.0815051704621580e-23 0.0000000000000000e+00  8.3405817410344378e-21 -1.7382638074379126e-23 0.0000000000000000e+00  1.3149082402333778e-06 -1.9227553768418614e-10 0.0000000000000000e+00  1.2628783146398300e-06 2.4850227160641230e-24 0.0000000000000000e+00  8.2922922245286176e-21 4.0174369405629421e-24 0.0000000000000000e+00  1.3148840521798474e-06 4.4328190419895276e-10 0.0000000000000000e+00  9.5528926962616379e-21 -8.7758488851145887e-23 0.0000000000000000e+00  1.3137894698787844e-06 -6.3955311703476634e-10 0.0000000000000000e+00  1.3135386076619369e-06 -7.1521103299523779e-11 0.0000000000000000e+00  8.9418885712955630e-21 3.2031475725800380e-24 0.0000000000000000e+00  9.1084212888430502e-21 -1.8201352065290108e-22 0.0000000000000000e+00  1.3137080470927866e-06 -3.4579721138086991e-11 0.0000000000000000e+00  1.3109681301794853e-06 -5.1558243920457289e-09 0.0000000000000000e+00  8.3821588394949344e-21 -3.4113101692258948e-23 0.0000000000000000e+00  8.9028940882132152e-21 1.6784544379286681e-22 0.0000000000000000e+00  1.3134039079781637e-06 3.8431387863114530e-11 0.0000000000000000e+00  1.3147353622622209e-06 -1.2821143845427894e-10 0.0000000000000000e+00  1.3143809199363742e-06 -1.1060242832073674e-10 0.0000000000000000e+00  -6.9975556547093112e-22 1.1992255379804047e-20 0.0000000000000000e+00  9.9323142033184138e-07 -5.2409524157162753e-08 0.0000000000000000e+00  1.3131978404360807e-06 3.1854032512910932e-10 0.0000000000000000e+00  1.3128557980102217e-06 6.7584916246357646e-11 0.0000000000000000e+00  -9.5738605684212172e-22 -1.3892290700326621e-20 0.0000000000000000e+00  7.9567666344212857e-21 1.5619445923376178e-23 0.0000000000000000e+00  9.6011825264744905e-21 1.2167382981361906e-22 0.0000000000000000e+00  1.3138206075511302e-06 -4.7838351698277664e-10 0.0000000000000000e+00  1.3142359745651413e-06 3.4754674569834959e-10 0.0000000000000000e+00  1.3143907324720734e-06 -3.3537723287219877e-10 0.0000000000000000e+00  1.2942590909647352e-06 -4.1989541541752734e-08 0.0000000000000000e+00  1.3134560271745278e-06 -9.8803980365580430e-10 0.0000000000000000e+00  -5.8797621745280977e-21 1.5879564773145300e-21 0.0000000000000000e+00  5.2582225890976515e-22 -5.2081442787252934e-21 0.0000000000000000e+00  7.3794730713701213e-22 5.5076067313152610e-21 0.0000000000000000e+00  -6.8644246011235087e-21 1.8948672076018021e-21 0.0000000000000000e+00  1.3007890906318009e-06 -1.2564937968516945e-08 0.0000000000000000e+00  7.9354886726135925e-21 -2.2547038549022490e-23 0.0000000000000000e+00  1.2952349853740428e-06 7.4402312383454992e-08 0.0000000000000000e+00  1.3119420862501636e-06 3.6181247145680594e-11 0.0000000000000000e+00  1.3125289764710928e-06 1.1122100753875831e-10 0.0000000000000000e+00  1.3137050833124210e-06 -5.6341881781069437e-10 0.0000000000000000e+00  1.2993715393748222e-06 2.4026149787237822e-08 0.0000000000000000e+00  1.3135606127420420e-06 -2.6623719970185060e-10 0.0000000000000000e+00  8.9651988699048271e-21 -1.6458080796517132e-24 0.0000000000000000e+00  1.3124996997717749e-06 -2.8279715958804753e-11 0.0000000000000000e+00  1.0737263125419631e-20 1.5642815977124023e-22 0.0000000000000000e+00  1.3147333422554778e-06 -1.0017880451346156e-09 0.0000000000000000e+00  6.2822003142802439e-07 5.1174636552048455e-07 0.0000000000000000e+00  -3.1065939389098469e-20 -2.5353644939701355e-05 0.0000000000000000e+00  -4.4507626938099161e-20 2.5353644939701372e-05 0.0000000000000000e+00  6.5093359694533111e-07 -6.4086170750255596e-07 0.0000000000000000e+00  1.3119801811619587e-06 -1.8639210739033383e-09 0.0000000000000000e+00  1.3131374892560381e-06 1.1803350452837660e-09 0.0000000000000000e+00  8.4349316219629833e-21 7.9304744399210632e-23 0.0000000000000000e+00  1.3130245544584582e-06 -4.0500444000734260e-10 0.0000000000000000e+00  9.9516035575276387e-21 5.6715409077166539e-23 0.0000000000000000e+00  1.3132779271856890e-06 -4.1748774497183166e-10 0.0000000000000000e+00  9.9893232705743890e-21 2.0732908882059971e-23 0.0000000000000000e+00  8.7635555860046509e-21 -1.9204125508412000e-24 0.0000000000000000e+00  9.7518675082348656e-21 5.2764324876850274e-23 0.0000000000000000e+00  1.3137019581319933e-06 4.0643255963384901e-10 0.0000000000000000e+00  8.3390994999765277e-21 3.1245408359187739e-23 0.0000000000000000e+00  9.2857244204125580e-21 2.5435767987303256e-23 0.0000000000000000e+00  1.3128745626499453e-06 9.9847077309718893e-11 0.0000000000000000e+00  1.3141528735171046e-06 2.0926895227308257e-10 0.0000000000000000e+00  9.3353436937927331e-21 6.2427060648659167e-24 0.0000000000000000e+00  1.3139011638547184e-06 9.0156422733485070e-10 0.0000000000000000e+00  1.0053247537041421e-20 1.0805460496761059e-22 0.0000000000000000e+00  1.3145089640216334e-06 -1.6685342887941819e-09 0.0000000000000000e+00  8.4906855285351014e-21 2.5682210444787795e-24 0.0000000000000000e+00  1.3117379354568779e-06 8.8385317788469569e-10 0.0000000000000000e+00  9.6719056401003168e-21 0.0000000000000000e+00 0.0000000000000000e+00  8.7241426724522936e-21 8.1522234704316363e-23 0.0000000000000000e+00  9.1845773136156551e-21 1.6922307730140729e-22 0.0000000000000000e+00  1.0156485938128096e-20 -6.2568846477563221e-23 0.0000000000000000e+00  1.3139834313371043e-06 9.9545488927527644e-10 0.0000000000000000e+00  1.3142904888174589e-06 1.5538371983966816e-09 0.0000000000000000e+00  1.3139072375894404e-06 1.6200399629991459e-10 0.0000000000000000e+00  -2.7734445467265319e-07 -1.4449125773206271e-06 0.0000000000000000e+00  1.6760986999915158e-21 -2.0137742622608687e-20 0.0000000000000000e+00  1.3186701490290060e-06 -1.1212966423922133e-08 0.0000000000000000e+00  1.3158018187683582e-06 -3.6927054792679343e-09 0.0000000000000000e+00  1.2982578247660077e-06 3.0988287387896151e-09 0.0000000000000000e+00  1.3107743633984029e-06 -1.4072583444004611e-09 0.0000000000000000e+00  2.2022670212439897e-07 1.1724769045321377e-06 0.0000000000000000e+00  1.3119191488477310e-06 -2.3776979223406017e-12 0.0000000000000000e+00  1.3147075191642646e-06 -1.4195536113779208e-12 0.0000000000000000e+00  3.6693608222483280e-21 1.1107254380859804e-20 0.0000000000000000e+00  -2.4431317255488600e-07 1.2461637830552071e-06 0.0000000000000000e+00  1.3117366609430529e-06 -8.9885643408652830e-10 0.0000000000000000e+00  2.1952955247939714e-07 -1.3540283424853486e-06 0.0000000000000000e+00  1.3139975158155170e-06 -2.1906789786614844e-10 0.0000000000000000e+00  8.5665971194097247e-21 -7.4574946017391274e-23 0.0000000000000000e+00  1.3114447608866519e-06 -4.0037423733498260e-09 0.0000000000000000e+00  1.3127058614859991e-06 5.5726165345696918e-12 0.0000000000000000e+00  1.3121268481781927e-06 6.0560881753893499e-09 0.0000000000000000e+00  1.3143212000155194e-06 -2.9262290979811288e-10 0.0000000000000000e+00  1.3137541884026651e-06 -1.5517577141692847e-09 0.0000000000000000e+00  1.3118066560483273e-06 -2.4224328732262902e-07 0.0000000000000000e+00  9.4914950638264693e-21 -1.2951356847741785e-22 0.0000000000000000e+00  1.3113654038742414e-06 -4.6880110006303810e-10 0.0000000000000000e+00  1.2262993532622020e-22 -1.2423974914903545e-20 0.0000000000000000e+00  9.8036254499785165e-23 1.0898155627765838e-20 0.0000000000000000e+00  -3.0336615464214560e-06 -3.3089091498069529e-06 0.0000000000000000e+00  -2.4647564249351422e-06 2.7151954638028246e-06 0.0000000000000000e+00  8.6401609547220727e-21 3.6685466010199015e-24 0.0000000000000000e+00  1.0076672961577775e-20 1.4881778567642387e-22 0.0000000000000000e+00  8.6779597382499258e-21 1.8896249051957863e-23 0.0000000000000000e+00  1.3114270921629591e-06 1.5988116710260385e-09 0.0000000000000000e+00  1.3119757493539138e-06 9.6396126442909152e-10 0.0000000000000000e+00  1.1934917747388758e-06 -3.0614285317489414e-22 0.0000000000000000e+00  9.1501948170900454e-21 -3.4970801184653813e-22 0.0000000000000000e+00  1.3119491850550022e-06 3.6767671338159271e-10 0.0000000000000000e+00  9.7216532182825491e-21 6.7369350769689540e-23 0.0000000000000000e+00  8.7661699146273970e-21 -1.8604383738597760e-23 0.0000000000000000e+00  1.3132425842226490e-06 -1.6774088772468534e-10 0.0000000000000000e+00  1.3146680659976758e-06 1.4100770793093609e-10 0.0000000000000000e+00  1.1921286119927431e-06 4.0858647105931190e-22 0.0000000000000000e+00  9.7427343130802652e-21 -1.1483058740940239e-22 0.0000000000000000e+00  4.8855826607568397e-07 -4.8744395088372668e-08 0.0000000000000000e+00  9.4791933495991142e-21 3.1677217660329407e-22 0.0000000000000000e+00  1.1517690832492392e-20 -4.4828276709192287e-22 0.0000000000000000e+00  1.3132988821355089e-06 -5.8812075313458032e-10 0.0000000000000000e+00  1.3086848089662067e-06 -1.6143734590000797e-09 0.0000000000000000e+00  1.3150275323499286e-06 9.0354473745691745e-12 0.0000000000000000e+00  1.3125458751689909e-06 8.2848529070706510e-10 0.0000000000000000e+00  9.8104841381200546e-21 1.0003476136754947e-23 0.0000000000000000e+00  1.0682524116400935e-20 2.8028014756852640e-23 0.0000000000000000e+00  8.9918459842606259e-21 -1.7459251373593484e-22 0.0000000000000000e+00  8.7985397754344818e-21 1.8361088981739596e-22 0.0000000000000000e+00  1.3123031113691843e-06 -2.1098508879324676e-10 0.0000000000000000e+00  1.3124669504310454e-06 4.9580163477938610e-10 0.0000000000000000e+00  1.3121575878602506e-06 -4.3323866437244862e-10 0.0000000000000000e+00  1.1894726376593063e-06 3.5420350049509925e-07 0.0000000000000000e+00  1.3139825504881011e-06 -3.7774341812166330e-10 0.0000000000000000e+00  1.3118366653904377e-06 4.2433772438260816e-10 0.0000000000000000e+00  1.3136596478866600e-06 3.8471264610969009e-10 0.0000000000000000e+00  1.3063543555316521e-06 1.4686790247078984e-09 0.0000000000000000e+00  1.3130622048990874e-06 8.4586426744754281e-11 0.0000000000000000e+00  1.3089074703136276e-06 3.6104728729754421e-10 0.0000000000000000e+00  1.3119716759694228e-06 2.2996845620227670e-10 0.0000000000000000e+00  1.3063397139130935e-06 9.5640199710382371e-11 0.0000000000000000e+00  1.3134725868793943e-06 -1.2606766667142052e-09 0.0000000000000000e+00  1.3095535583718172e-06 7.6792667446158900e-10 0.0000000000000000e+00  1.3083435130842652e-06 -4.8363294842743373e-10 0.0000000000000000e+00  1.3113544277900243e-06 5.3677173539212432e-10 0.0000000000000000e+00  1.3132070560591879e-06 1.6371087082098906e-09 0.0000000000000000e+00  1.3043561090177802e-06 -1.5185635212437861e-09 0.0000000000000000e+00  1.3042438527864205e-06 1.4208462936198178e-09 0.0000000000000000e+00  1.3063833467511067e-06 -2.0294163761425016e-10 0.0000000000000000e+00  1.3036829288746996e-06 -9.5420653488951796e-10 0.0000000000000000e+00  1.3070158108373436e-06 -7.9944630363810145e-10 0.0000000000000000e+00  1.3133914263868959e-06 -3.5751294418128401e-10 0.0000000000000000e+00  1.3141453483813491e-06 -2.4268840495779362e-10 0.0000000000000000e+00  1.3147220211913937e-06 3.0835755574568210e-10 0.0000000000000000e+00  1.3083492247536989e-06 -1.2391922798824588e-09 0.0000000000000000e+00  1.2041827906770647e-06 -7.4154857512618717e-08 0.0000000000000000e+00  1.3451817562735022e-06 -4.0011765942799944e-08 0.0000000000000000e+00  1.3056508568300407e-06 -1.2892171173460928e-08 0.0000000000000000e+00  1.3138652691359333e-06 -4.0070624068418110e-10 0.0000000000000000e+00  1.3145648098156961e-06 -8.8230134846777640e-10 0.0000000000000000e+00  1.3145988725747371e-06 -2.0829268865214306e-10 0.0000000000000000e+00  8.4369955709039193e-22 -3.2326016737957713e-21 0.0000000000000000e+00  1.2869936039437324e-21 2.7328181182951885e-21 0.0000000000000000e+00  1.3138970952157098e-06 6.3259312959653394e-10 0.0000000000000000e+00  1.3136137478220868e-06 -2.1135252458638934e-09 0.0000000000000000e+00  1.3148017650655316e-06 2.5594228476438928e-10 0.0000000000000000e+00  1.3046482662736100e-06 5.8109580865186687e-10 0.0000000000000000e+00  1.3071759968682269e-06 7.0421229559466912e-10 0.0000000000000000e+00  1.3143554526430308e-06 -1.7666241970388478e-08 0.0000000000000000e+00  1.2976892624265312e-06 -8.1559198361716380e-08 0.0000000000000000e+00  1.2803593067378866e-06 1.4016181784163159e-09 0.0000000000000000e+00  1.3053729405246043e-06 1.1390647393864905e-09 0.0000000000000000e+00  1.3056943631621548e-06 -1.1212832633853962e-10 0.0000000000000000e+00  1.2547903236834014e-06 5.2226249170433611e-10 0.0000000000000000e+00  1.3091526196542335e-06 1.7146010999036527e-08 0.0000000000000000e+00  1.3135773930104162e-06 -1.8324223357405411e-10 0.0000000000000000e+00  1.3006593901026057e-06 1.5429853916519893e-09 0.0000000000000000e+00  9.8492288364851976e-09 -1.5477999780963586e-06 0.0000000000000000e+00  1.3138023043028322e-06 8.1176084880970701e-10 0.0000000000000000e+00  1.4483814890776570e-08 1.3383907584930466e-06 0.0000000000000000e+00  -5.6785545668671099e-20 -5.6475924531948943e-20 0.0000000000000000e+00  -1.0849821811249501e-21 7.6019666546793891e-21 0.0000000000000000e+00  4.9129177179101405e-22 9.2480095660548742e-21 0.0000000000000000e+00  4.5604114499134454e-22 -9.3028254468976668e-21 0.0000000000000000e+00  -1.1106527772029839e-21 -9.9763898583846974e-21 0.0000000000000000e+00  -6.0405846842058974e-20 4.8165674832901344e-20 0.0000000000000000e+00  1.3094320831307198e-06 -9.0941487797099729e-10 0.0000000000000000e+00  1.2629165391216883e-06 -1.0174118345116316e-09 0.0000000000000000e+00  1.2631364786715040e-06 -3.0491190355415782e-09 0.0000000000000000e+00  1.2617406073864638e-06 4.4652769537140878e-10 0.0000000000000000e+00  1.2623870793854904e-06 -1.7281081682618802e-10 0.0000000000000000e+00  1.2613218169548287e-06 1.3874027142302305e-09 0.0000000000000000e+00  1.3026598461261495e-06 1.7248698131341481e-09 0.0000000000000000e+00  1.3082836253678686e-06 1.9040711396032401e-08 0.0000000000000000e+00  1.3030769261099176e-06 -2.2807758765781022e-10 0.0000000000000000e+00  1.3121606808698164e-06 -7.5797915536285504e-10 0.0000000000000000e+00  1.3140956770964226e-06 3.6957699886323190e-10 0.0000000000000000e+00  1.3145216561748518e-06 -2.8929041009012759e-10 0.0000000000000000e+00  -2.3971171519393295e-07 1.9438583477076049e-06 0.0000000000000000e+00  -4.8962115563984257e-07 -2.0260931361123962e-06 0.0000000000000000e+00  1.2654209166809377e-06 -4.3071524208536822e-09 0.0000000000000000e+00  1.3004130833484295e-06 1.6257388087071098e-09 0.0000000000000000e+00  1.3146679917765004e-06 -2.6397512561038298e-10 0.0000000000000000e+00  1.3143851814405780e-06 -3.0017203657490952e-10 0.0000000000000000e+00  9.0578387754348272e-21 1.0812799996686365e-22 0.0000000000000000e+00  1.1624715150901315e-06 8.4269437980158649e-08 0.0000000000000000e+00  5.4078119584304720e-06 6.3397960520883704e-06 0.0000000000000000e+00  5.4976939320959361e-06 -6.7664285788296572e-06 0.0000000000000000e+00  1.3151548056301650e-06 -2.1139811561353366e-10 0.0000000000000000e+00  1.2522824152152132e-06 1.2623761274407018e-09 0.0000000000000000e+00  9.1334079317090016e-21 2.7858626234251332e-23 0.0000000000000000e+00  1.2579462426351084e-06 -2.0221550925002157e-09 0.0000000000000000e+00  1.3151669759477215e-06 2.3204259333284396e-10 0.0000000000000000e+00  1.2972170542809325e-06 1.0439961220329485e-07 0.0000000000000000e+00  1.3129087594645470e-06 5.3806943054349934e-11 0.0000000000000000e+00  9.5179743972146320e-21 -9.2131075588656501e-23 0.0000000000000000e+00  1.3144696159841266e-06 5.2780326998286792e-10 0.0000000000000000e+00  1.3139650716130194e-06 -5.8595438087715762e-10 0.0000000000000000e+00  1.3031470590761404e-06 -4.4417836939660244e-10 0.0000000000000000e+00  1.3066732496110785e-06 2.4908274382648994e-10 0.0000000000000000e+00  1.3034413569286659e-06 -9.8930326135851959e-10 0.0000000000000000e+00  9.3289039925536801e-21 7.6147779607640029e-23 0.0000000000000000e+00  1.3074407505005221e-06 -3.8000090865115101e-10 0.0000000000000000e+00  1.3146062520360162e-06 1.0465775537458065e-09 0.0000000000000000e+00  1.2646008281655212e-06 2.9688580592356244e-09 0.0000000000000000e+00  1.3143984322822446e-06 -5.6865727774130504e-11 0.0000000000000000e+00  1.3146030514334539e-06 -6.5404821765606619e-09 0.0000000000000000e+00  1.3134180957073726e-06 1.8142510265661880e-10 0.0000000000000000e+00  1.3135856167454815e-06 -3.0882232277423827e-10 0.0000000000000000e+00  1.2678226231871614e-06 -1.9859005045564901e-08 0.0000000000000000e+00  1.3065768376111559e-06 7.9720410011243593e-10 0.0000000000000000e+00  1.3060647973469548e-06 -1.1687001372482066e-09 0.0000000000000000e+00  1.3047591705095832e-06 -8.4571108561936332e-10 0.0000000000000000e+00  1.3070253130201911e-06 -2.1369822817043866e-09 0.0000000000000000e+00  1.3133312983839575e-06 4.0502889982828946e-10 0.0000000000000000e+00  9.8323077622799357e-21 -1.1287296456656550e-22 0.0000000000000000e+00  1.2163024565868993e-06 -7.0375561269974881e-07 0.0000000000000000e+00  7.1835392341517660e-07 -1.3246626261400374e-06 0.0000000000000000e+00  3.0626648624158297e-07 -9.9579692440996111e-07 0.0000000000000000e+00  9.3989625913256148e-07 -3.3723850354153600e-07 0.0000000000000000e+00  1.3148016223558826e-06 6.8554648299110196e-11 0.0000000000000000e+00  1.3137245894478555e-06 -6.9325974856397937e-10 0.0000000000000000e+00  1.3135620979449496e-06 1.1159621534769658e-10 0.0000000000000000e+00  1.3135326245648333e-06 -2.5129162143672540e-10 0.0000000000000000e+00  1.3117901946882576e-06 -2.8398622816436525e-09 0.0000000000000000e+00  1.3058333293490806e-06 2.9095063370087119e-09 0.0000000000000000e+00  1.0454883263630581e-20 2.3404110671288410e-23 0.0000000000000000e+00  1.3048961213235314e-06 1.8218490959539453e-09 0.0000000000000000e+00  1.3135774279531496e-06 -3.8910484498223697e-10 0.0000000000000000e+00  1.3135394545948486e-06 5.7461159951854622e-12 0.0000000000000000e+00  1.3045928373463697e-06 1.1710564557258933e-09 0.0000000