<?xml version="1.0"?>
<VTKFile type="UnstructuredGrid"  version="0.1"  >
<UnstructuredGrid>
<Piece  NumberOfPoints="1079" NumberOfCells="1944">
<Points>
<DataArray  type="Float64"  NumberOfComponents="3"  format="ascii">0.08500000000000001 0.02 0  0.005 0.02 0  0.005 0.03 0  0 0.03 0  0 0 0  0.005 0 0  0.005 0.01 0  0.08500000000000001 0.01 0  0 0.015 0  0 0.0075 0  0 0.0225 0  0.04500000000000001 0.02 0  0.04500000000000001 0.01 0  0.025 0.01 0  0.025 0.02 0  0.065 0.02 0  0.065 0.01 0  0.035 0.02 0  0.035 0.01 0  0.07500000000000001 0.02 0  0.07500000000000001 0.01 0  0.015 0.02 0  0.015 0.01 0  0.05500000000000001 0.01 0  0.05500000000000001 0.02 0  0.07000000000000001 0.01 0  0.07000000000000001 0.02 0  0.05 0.01 0  0.03 0.01 0  0.03 0.02 0  0.04000000000000001 0.01 0  0.01 0.01 0  0.02 0.02 0  0.06 0.015 0  0.08500000000000001 0.015 0  0.05 0.02 0  0.07250000000000001 0.015 0  0.04000000000000001 0.02 0  0.03750000000000001 0.015 0  0.0525 0.015 0  0.02 0.01 0  0.01 0.02 0  0.0275 0.015 0  0.0125 0.015 0  0.08000000000000002 0.01 0  0.08000000000000002 0.02 0  0.0325 0.014375 0  0.04291666666666667 0.015 0  0.065 0.015 0  0.005 0.005 0  0.005 0.015 0  0.02208333333333334 0.015 0  0.07791666666666668 0.015 0  0.005 0.025 0  0.06 0.01 0  0.06 0.02 0  0.01729166666666667 0.01572916666666667 0  0.04770833333333334 0.01427083333333334 0  0.06875000000000001 0.01625 0  0.008750000000000001 0.01625 0  0.05625000000000001 0.01625 0  0 0.00375 0  0 0.01875 0  0 0.01125 0  0 0.02625 0  0.08145833333333334 0.01354166666666667 0  0.0675 0.01 0  0.0075 0.0125 0  0.0625 0.0175 0  0.0575 0.0125 0  0.0625 0.0125 0  0.08207465277777778 0.01707465277777778 0  0.06767857142857144 0.01321428571428571 0  0.0175 0.01 0  0.01875 0.01291382575757576 0  0.0475 0.02 0  0.04564168086314595 0.01679860519591141 0  0.00296875 0.0125 0  0.0025 0.03 0  0.0025 0 0  0.00296875 0.0175 0  0.01521990740740741 0.0132349537037037 0  0.0497800925925926 0.0167650462962963 0  0.0325 0.02 0  0.03474264705882353 0.01674632352941176 0  0.03750000000000001 0.02 0  0.03025735294117647 0.01674632352941176 0  0.0275 0.02 0  0.0525 0.02 0  0.0125 0.01 0  0.04020833333333334 0.01322916666666667 0  0.03750000000000001 0.01 0  0.0225 0.02 0  0.02479166666666667 0.01677083333333333 0  0.07520833333333335 0.01322916666666667 0  0.07250000000000001 0.01 0  0.07520833333333335 0.01677083333333334 0  0.07250000000000001 0.02 0  0.04020833333333334 0.01677083333333333 0  0.0225 0.01 0  0.02375 0.01262152777777778 0  0.04250000000000001 0.02 0  0.04250000000000001 0.01 0  0.07750000000000001 0.01 0  0.07750000000000001 0.02 0  0.05036151960784314 0.01294424019607843 0  0.0705560064935065 0.01284699675324675 0  0.05458333333333334 0.01291666666666666 0  0.0021875 0.024375 0  0.005 0.0275 0  0.01125 0.0175 0  0.01463848039215686 0.01705575980392157 0  0.01 0.01375 0  0.03625 0.0125 0  0.0021875 0.009375 0  0.05375000000000001 0.0175 0  0.07125000000000001 0.0175 0  0.005 0.0025 0  0.0021875 0.005625 0  0.02655220103578155 0.01234889948210923 0  0.002187499999999999 0.020625 0  0.02979166666666667 0.01302083333333333 0  0.0525 0.01 0  0.07895833333333334 0.0125 0  0.01994277885235332 0.01704213007736944 0  0.07934656179076068 0.01733823814273861 0  0.04505722114764669 0.01295786992263056 0  0.06625 0.0175 0  0.006250000000000001 0.0175 0  0.05750000000000001 0.02 0  0.05875000000000001 0.0175 0  0.005 0.0225 0  0.005 0.0075 0  0.002375 0.027375 0  0.002375 0.002625000000000001 0  0.0475 0.01 0  0.0175 0.02 0  0.0325 0.01 0  0.03375 0.0121875 0  0.04261299435028249 0.01749205508474576 0  0.08500000000000001 0.0125 0  0.08250000000000002 0.01 0  0.02121963399965531 0.01224824108143494 0  0.0675 0.02 0  0.0125 0.02 0  0.02720152243589744 0.0175 0  0.03715165441176471 0.0175 0  0.08500000000000001 0.0175 0  0.0275 0.01 0  0.0025 0.0149560546875 0  0.0075 0.01 0  0.0075 0.02 0  0.06526785714285716 0.0125 0  0.01281031447005516 0.0125 0  0.0625 0.015 0  0.06 0.0125 0  0.05750000000000001 0.01 0  0.0625 0.02 0  0.0625 0.01 0  0.08250000000000002 0.02 0  0.04260103740101855 0.01252623201412851 0  0.02240052247582197 0.01750164767101344 0  0.07293583459427785 0.01238479732953041 0  0.005234374999999999 0.012265625 0  0.03528131980640358 0.01454684009679821 0  0.0325 0.01760027210036557 0  0.02532593822924343 0.01428227733767297 0  0.08009952069819683 0.01527145502895417 0  0.01987282359856536 0.01482587683689801 0  0.04828232595121382 0.01210233572595705 0  0.01671767404878618 0.01789766427404295 0  0.05125 0.01829007549029352 0  0.05247215456215357 0.01288882122882024 0  0.07338729919678716 0.01799385040160642 0  0.03838729919678716 0.01200614959839357 0  0.07717482110586968 0.01780301674207099 0  0.04771860040890012 0.01773306039388322 0  0.03125 0.01160380747126437 0  0.06875000000000001 0.01154265873015873 0  0.07625000000000001 0.01154065860215054 0  0.01625 0.01153997817696946 0  0.068125 0.018125 0  0.05437500000000001 0.015625 0  0.066875 0.015625 0  0.07039794950204951 0.01494384850614853 0  0.05687500000000001 0.018125 0  0.006875 0.015625 0  0.008749999999999999 0.01833333333333333 0  0.010625 0.015625 0  0.05625 0.01416666666666667 0  0.05812500000000001 0.015625 0  0.0449088595298192 0.01494528408816316 0  0 0.016875 0  0 0.013125 0  0.04962452342047931 0.01478673066448802 0  0.0153754765795207 0.01521326933551198 0  0.0771774565913315 0.01322498191305479 0  0.01857756431135545 0.01840228599899994 0  0.04642243568864456 0.01159771400100006 0  0.08125000000000002 0.01155637254901961 0  0.08317650804863432 0.0118234919513657 0  0.08288217288011697 0.01511353252923977 0  0.02837253504384828 0.0117177464035174 0  0.03896057962520807 0.01831163685754031 0  0.01125 0.0114244162490927 0  0.00935910490099115 0.0119067901980177 0  0.02946078431372549 0.01495404411764706 0  0.02875 0.0185829434466942 0  0.002968749999999999 0.0225 0  0.064375 0.016875 0  0.00296875 0.0075 0  0 0.001875 0  0 0.005625 0  0 0.009375 0  0 0.020625 0  0 0.024375 0  0 0.028125 0  0.06062500000000001 0.01812500000000001 0  0.008303571428571429 0.01446428571428572 0  0.01375 0.01865917058160413 0  0.05137790313978056 0.01143372888932909 0  0.04125000000000001 0.01131513063942604 0  0.04101690263896279 0.01844430285842771 0  0.02399563533148224 0.01844349395710867 0  0.08125000000000002 0.01868815426145731 0  0.05354684380692146 0.01145463537600848 0  0.01699195823639423 0.01315138909884649 0  0.07598357371794873 0.015 0  0.04098357371794872 0.015 0  0.003744047619047619 0.00375 0  0.003344630281690141 0.02580853873239437 0  0.04625 0.0187354532243972 0  0.06388392857142858 0.01138392857142858 0  0.06375 0.01375 0  0.05875 0.01375 0  0.06375 0.02 0  0.00622802734375 0.01372802734375 0  0.003630681818181818 0.001369318181818182 0  0.003630681818181818 0.02863068181818182 0  0.06125 0.01625 0  0.06125 0.01125 0  0.05625000000000001 0.01 0  0.05875 0.01125 0  0.06125 0.01375 0  0.08337864763241221 0.0183786476324122 0  0.05213634138653413 0.01674432930673294 0  0.04375000000000001 0.01 0  0.07424178685897437 0.01529258578431373 0  0.03924178685897436 0.01529258578431372 0  0.03410139294454583 0.01843406022904556 0  0.03089860705545417 0.01843406022904556 0  0.02094160484316717 0.01850229584291991 0  0.04375000000000001 0.02 0  0.04437042160883325 0.01820701498672512 0  0.04816311705429156 0.01600061344661149 0  0.07151224904251052 0.0114127410511319 0  0.04395528506193162 0.01639387970349481 0  0.0128750358694518 0.0167500179347259 0  0.02855808448399799 0.01642839899839741 0  0.02812690373330794 0.01340955081400569 0  0.08358500641945087 0.01351822349116885 0  0.05590277777777778 0.01173611111111111 0  0.06683110430364615 0.01164926404662283 0  0.02573206694914602 0.01842532451809762 0  0.01438126661842046 0.01166701193099454 0  0.02384283211216029 0.01526549696571563 0  0.03625 0.02 0  0.004609375000000001 0.0182421875 0  0.003398437500000001 0.01943359375 0  0.001728307845744682 0.01894718251329787 0  0.004377805359085963 0.01656966216675735 0  0.04649673309852075 0.0153889662370871 0  0.03615513600614297 0.01592654988586041 0  0.03316985071935832 0.01598763605018279 0  0.03110111603888768 0.01529816275177977 0  0.01370614113484869 0.0138804542047638 0  0.04930041102671841 0.01842260568883502 0  0.07875000000000001 0.02 0  0.0745395359848485 0.01165101111925709 0  0.03860755698543604 0.01373741558556884 0  0.02605038706571737 0.01573944002207753 0  0.07559826163500957 0.01841729376139847 0  0.04437500000000001 0.01149157931286774 0  0.06874116707361365 0.01454618473032123 0  0.003761917372881356 0.0239307468220339 0  0.003984374999999999 0.01125 0  0.003768503289473684 0.01392539576480263 0  0.001796875 0.0111328125 0  0.003761917372881356 0.008930746822033899 0  0.005 0.00625 0  0.003761917372881355 0.0210692531779661 0  0.06633928571428571 0.01410714285714285 0  0.006484375 0.01125 0  0.08364120589325512 0.01657288979763549 0  0.03576267476503373 0.0184116442851204 0  0.07370875846579374 0.0137848203678562 0  0.06964285714285715 0.01758928571428571 0  0.05520833333333334 0.01833333333333333 0  0.06491071428571429 0.01839285714285714 0  0.0510098951944636 0.01559941474766356 0  0.01786087179886325 0.0115702210443714 0  0.01972197383235524 0.01160576093166696 0  0.01804697593127788 0.01433503795474974 0  0.001644074528704677 0.01642892723865279 0  0.00125 0.03 0  0.001497685185185185 0.001267746913580247 0  0.07315451164202422 0.01643443118912983 0  0.001233906745910645 0.0140625 0  0.01162635071030191 0.01362229857939618 0  0.01528023503083844 0.01845923557506155 0  0.06625 0.02 0  0.07695012019230771 0.01624387078484555 0  0.03139091092855769 0.01320776147621796 0  0.03857339107781042 0.01675295051810485 0  0.001754993120977522 0.02590789105493891 0  0.002288757784711197 0.00412546923654445 0  0.07914382119690884 0.01404430049871201 0  0.001391810103286306 0.01257390899021902 0  0.0419501201923077 0.01614675005432421 0  0.001484375 0.007018229166666667 0  0.001484375 0.02201822916666666 0  0.048
[...]
<PointData  Vectors="velocity"> 
<DataArray  type="Float64"  Name="velocity"  NumberOfComponents="3" format="ascii">6.2107200270038555e-07 4.6762507255553631e-21 0.0000000000000000e+00  1.2775999565304200e-20 -1.4342234188021001e-20 0.0000000000000000e+00  5.6997914083732217e-19 -3.0538555088334318e-05 0.0000000000000000e+00  -6.6174449004242426e-19 -3.0538555088334257e-05 0.0000000000000000e+00  -6.2555533824322978e-19 3.0538555088334284e-05 0.0000000000000000e+00  5.8936618644403482e-19 3.0538555088334257e-05 0.0000000000000000e+00  1.2198477644024506e-20 1.1305459315167613e-20 0.0000000000000000e+00  6.3785945104249929e-07 -4.7879856116398098e-21 0.0000000000000000e+00  1.4395488130384359e-21 -1.2154085373241182e-22 0.0000000000000000e+00  -1.5480182914204748e-22 1.1374309605720910e-20 0.0000000000000000e+00  6.2347849306956880e-23 -1.2703514908983569e-20 0.0000000000000000e+00  1.1670625313835626e-20 -4.5019512911497662e-23 0.0000000000000000e+00  9.9291625111139573e-21 6.2452573965534148e-23 0.0000000000000000e+00  1.2598506155357922e-20 3.5000564312265238e-23 0.0000000000000000e+00  9.7221402076581135e-21 -4.0562503140386389e-23 0.0000000000000000e+00  1.0828528468978201e-20 3.1518869842008376e-23 0.0000000000000000e+00  1.1222706852487507e-20 1.6296527366249899e-23 0.0000000000000000e+00  9.4627506570166082e-21 -2.0886714484386908e-23 0.0000000000000000e+00  1.3503573581496680e-20 -1.6852554152748590e-23 0.0000000000000000e+00  1.1408514740673797e-20 7.3292108013281578e-23 0.0000000000000000e+00  1.0308532659392059e-20 4.5070276105426865e-23 0.0000000000000000e+00  9.1635999569240753e-21 -2.3674747713077674e-23 0.0000000000000000e+00  9.6182696613356954e-21 -1.8647090678232418e-23 0.0000000000000000e+00  1.2117819857818915e-20 -1.3430431668495721e-22 0.0000000000000000e+00  1.0690499480170692e-20 4.8264278369004239e-23 0.0000000000000000e+00  1.0591458585474484e-20 1.7852683296363774e-23 0.0000000000000000e+00  1.2436155121819741e-20 -4.6658086230744051e-23 0.0000000000000000e+00  1.1672733880055925e-20 3.6426550388721238e-23 0.0000000000000000e+00  1.2089023825665362e-20 5.4259532431173078e-24 0.0000000000000000e+00  9.4299661744040456e-21 -2.5419896486434150e-23 0.0000000000000000e+00  1.0554993904628521e-20 3.6781908035790030e-23 0.0000000000000000e+00  1.0951470864117887e-20 6.3341552822505048e-23 0.0000000000000000e+00  9.9116380650359940e-21 -2.0563564450282145e-23 0.0000000000000000e+00  1.5846952191197033e-06 -2.3172061140111174e-10 0.0000000000000000e+00  1.5219890851968264e-06 3.8764093873815614e-24 0.0000000000000000e+00  9.9434156398001934e-21 6.5516923700628818e-24 0.0000000000000000e+00  1.5846660644578236e-06 5.3423270790047364e-10 0.0000000000000000e+00  1.1886087686592822e-20 -1.1269313460571706e-22 0.0000000000000000e+00  1.5833469044395019e-06 -7.7077222880200034e-10 0.0000000000000000e+00  1.5830445684248789e-06 -8.6198405225994545e-11 0.0000000000000000e+00  1.0112850169917602e-20 5.1285013197224680e-24 0.0000000000000000e+00  1.1462979173033771e-20 -2.2316019420475371e-22 0.0000000000000000e+00  1.5832487728585554e-06 -4.1642105299145130e-11 0.0000000000000000e+00  1.5799466909486622e-06 -6.2085641965873361e-09 0.0000000000000000e+00  9.6376363749258939e-21 -3.9954880206155296e-23 0.0000000000000000e+00  1.0981374901910568e-20 2.0399283184033593e-22 0.0000000000000000e+00  1.5828822361101287e-06 4.6323670884643448e-11 0.0000000000000000e+00  1.5844868731796542e-06 -1.5451569568841559e-10 0.0000000000000000e+00  1.5840596976519251e-06 -1.3329587075318215e-10 0.0000000000000000e+00  -8.1482648068170644e-22 1.3932910814710096e-20 0.0000000000000000e+00  1.1970188948828744e-06 -6.3115326671175525e-08 0.0000000000000000e+00  1.5826338849808957e-06 3.8410896736933600e-10 0.0000000000000000e+00  1.5822216246157129e-06 8.1451869220789046e-11 0.0000000000000000e+00  -1.2024962118751967e-21 -1.6768303005544563e-20 0.0000000000000000e+00  1.0299367978565625e-20 2.2798080160887450e-23 0.0000000000000000e+00  1.2119498372673368e-20 1.3892441635066796e-22 0.0000000000000000e+00  1.5833841413712813e-06 -5.7554081561618439e-10 0.0000000000000000e+00  1.5838850143457591e-06 4.1885537722418518e-10 0.0000000000000000e+00  1.5840715306802929e-06 -4.0418449798536825e-10 0.0000000000000000e+00  1.5598029001126471e-06 -5.0588791765099424e-08 0.0000000000000000e+00  1.5829450552383097e-06 -1.1907686791967960e-09 0.0000000000000000e+00  -6.9473606659855508e-21 1.9140701847842615e-21 0.0000000000000000e+00  6.4207547941702621e-22 -6.0666295993942974e-21 0.0000000000000000e+00  8.7743734690071567e-22 6.9115064863564063e-21 0.0000000000000000e+00  -8.1157520023699828e-21 2.1451326878510968e-21 0.0000000000000000e+00  1.5676790014730205e-06 -1.5143096373683407e-08 0.0000000000000000e+00  9.2352669896796120e-21 -2.9628478804419187e-23 0.0000000000000000e+00  1.5610043889291581e-06 8.9686620958706882e-08 0.0000000000000000e+00  1.5811205001194804e-06 4.3660251355924667e-11 0.0000000000000000e+00  1.5818278141322182e-06 1.3401858067981859e-10 0.0000000000000000e+00  1.5832452131334487e-06 -6.7904986846043540e-10 0.0000000000000000e+00  1.5659705733640897e-06 2.8955943390225650e-08 0.0000000000000000e+00  1.5830710851530683e-06 -3.2085953953787604e-10 0.0000000000000000e+00  1.0532436837326100e-20 -2.0869229196048761e-24 0.0000000000000000e+00  1.5817929009958218e-06 -3.3602143907529527e-11 0.0000000000000000e+00  1.2325939812343965e-20 1.9173684152535055e-22 0.0000000000000000e+00  1.5844844415454255e-06 -1.2073182553932534e-09 0.0000000000000000e+00  7.5713219789484121e-07 6.1681665333923640e-07 0.0000000000000000e+00  -3.2550739317738435e-20 -3.0538555088334419e-05 0.0000000000000000e+00  -5.3664417556336035e-20 3.0538555088334433e-05 0.0000000000000000e+00  7.8447490995971893e-07 -7.7227967818980746e-07 0.0000000000000000e+00  1.5811675667379214e-06 -2.2446369531462440e-09 0.0000000000000000e+00  1.5825611356882814e-06 1.4225027954778310e-09 0.0000000000000000e+00  1.0482888858280279e-20 9.5155373245527712e-23 0.0000000000000000e+00  1.5824250425812231e-06 -4.8810840360468901e-10 0.0000000000000000e+00  1.0921065097275076e-20 6.8796679910249711e-23 0.0000000000000000e+00  1.5827304032229327e-06 -5.0313575796075879e-10 0.0000000000000000e+00  1.2654607361303349e-20 2.2761081004029959e-23 0.0000000000000000e+00  1.0729430226391770e-20 -1.0141479915636908e-24 0.0000000000000000e+00  1.1422531989689206e-20 6.2433809411120433e-23 0.0000000000000000e+00  1.5832414324952778e-06 4.8982514642994861e-10 0.0000000000000000e+00  1.0158638821339655e-20 3.7159704452666997e-23 0.0000000000000000e+00  1.1491042783764071e-20 3.0388594810255669e-23 0.0000000000000000e+00  1.5822442336062616e-06 1.2039656768265123e-10 0.0000000000000000e+00  1.5837848605909826e-06 2.5221313927035378e-10 0.0000000000000000e+00  1.1033413525741393e-20 3.6346262975721525e-24 0.0000000000000000e+00  1.5834815214594488e-06 1.0865403132986346e-09 0.0000000000000000e+00  1.2548267486190710e-20 1.3238698720544012e-22 0.0000000000000000e+00  1.5842140147338751e-06 -2.0108883645371130e-09 0.0000000000000000e+00  9.9183229182887913e-21 4.3292869035499431e-24 0.0000000000000000e+00  1.5808745513150684e-06 1.0652623416135957e-09 0.0000000000000000e+00  1.1784700561481454e-20 3.6680467385089185e-25 0.0000000000000000e+00  1.0841517430463657e-20 9.8586347848168178e-23 0.0000000000000000e+00  1.1200933274547178e-20 1.8983353052240618e-22 0.0000000000000000e+00  1.2441695274206919e-20 -7.7095233225821788e-23 0.0000000000000000e+00  1.5835806450550092e-06 1.1996869535925569e-09 0.0000000000000000e+00  1.5839507214145249e-06 1.8726433472113133e-09 0.0000000000000000e+00  1.5834888272272970e-06 1.9525761091094566e-10 0.0000000000000000e+00  -3.3407687473306268e-07 -1.7413075506458012e-06 0.0000000000000000e+00  2.4013848773749017e-21 -2.4329012631867080e-20 0.0000000000000000e+00  1.5892231181318807e-06 -1.3508171149311589e-08 0.0000000000000000e+00  1.5857705639965253e-06 -4.4484370300652747e-09 0.0000000000000000e+00  1.5646334507526727e-06 3.7451363105238353e-09 0.0000000000000000e+00  1.5797132470699564e-06 -1.6960185921451807e-09 0.0000000000000000e+00  2.6542997102203510e-07 1.4131418954842368e-06 0.0000000000000000e+00  1.5810928057179956e-06 -2.8599235401827675e-12 0.0000000000000000e+00  1.5844533056962898e-06 -1.6499447286556482e-12 0.0000000000000000e+00  4.2474605167225212e-21 1.3661535876109795e-20 0.0000000000000000e+00  -2.9431405590966191e-07 1.5019790144493453e-06 0.0000000000000000e+00  1.5808729025430668e-06 -1.0833044359825195e-09 0.0000000000000000e+00  2.6457451818504782e-07 -1.6317442462142226e-06 0.0000000000000000e+00  1.5835976417511086e-06 -2.6397059673208087e-10 0.0000000000000000e+00  1.0256194374812609e-20 -8.7830863334878868e-23 0.0000000000000000e+00  1.5805212682131933e-06 -4.8253513698352895e-09 0.0000000000000000e+00  1.5820407064248839e-06 7.0362928297079749e-12 0.0000000000000000e+00  1.5813431383745127e-06 7.2987303769532243e-09 0.0000000000000000e+00  1.5839877277647433e-06 -3.5264853164053902e-10 0.0000000000000000e+00  1.5833043644804323e-06 -1.8701539861908693e-09 0.0000000000000000e+00  1.5809329635218153e-06 -2.9191357311432696e-07 0.0000000000000000e+00  1.1787781560020122e-20 -1.5594039155899397e-22 0.0000000000000000e+00  1.5804254082002100e-06 -5.6489991291094463e-10 0.0000000000000000e+00  1.3357903669463274e-22 -1.4484536608107061e-20 0.0000000000000000e+00  1.0853420500464599e-22 1.3192962643434935e-20 0.0000000000000000e+00  -3.6542306004515110e-06 -3.9872639718051410e-06 0.0000000000000000e+00  -2.9691716149438006e-06 3.2720782204065912e-06 0.0000000000000000e+00  1.1211981439572455e-20 4.0071816718832773e-24 0.0000000000000000e+00  1.2382189355023030e-20 1.7556720300949141e-22 0.0000000000000000e+00  1.0398875138173729e-20 2.1754330855284091e-23 0.0000000000000000e+00  1.5804997948461701e-06 1.9268330333257166e-09 0.0000000000000000e+00  1.5811610043009495e-06 1.1617908244302329e-09 0.0000000000000000e+00  1.4383669084336816e-06 -3.7760171963368193e-22 0.0000000000000000e+00  1.0648658776683189e-20 -4.2841722249006097e-22 0.0000000000000000e+00  1.5811292347860135e-06 4.4327198673980486e-10 0.0000000000000000e+00  1.1463958728915273e-20 8.1554656523976126e-23 0.0000000000000000e+00  1.0767893753400581e-20 -2.2648814986119014e-23 0.0000000000000000e+00  1.5826877653371821e-06 -2.0212122208237304e-10 0.0000000000000000e+00  1.5844057832187854e-06 1.6991379043895656e-10 0.0000000000000000e+00  1.4367240802174671e-06 4.8333385655800631e-22 0.0000000000000000e+00  1.1637130561804815e-20 -1.3565070985917528e-22 0.0000000000000000e+00  5.8879895181210193e-07 -5.8679301286279546e-08 0.0000000000000000e+00  1.1670914355286771e-20 3.6728449665625178e-22 0.0000000000000000e+00  1.3489832843624355e-20 -4.9248187307494314e-22 0.0000000000000000e+00  1.5827556496704531e-06 -7.0880784179648445e-10 0.0000000000000000e+00  1.5771982361720968e-06 -1.9426264146590814e-09 0.0000000000000000e+00  1.5848389801774166e-06 1.0887717827355389e-11 0.0000000000000000e+00  1.5818481724601590e-06 9.9843026564678170e-10 0.0000000000000000e+00  1.1486682015537982e-20 1.3187986715458571e-23 0.0000000000000000e+00  1.4121104840564325e-20 3.2102374729494159e-23 0.0000000000000000e+00  1.0832203930368613e-20 -2.1392206859909663e-22 0.0000000000000000e+00  1.0280668697768235e-20 2.0039612496247483e-22 0.0000000000000000e+00  1.5815554958348679e-06 -2.5430516824737258e-10 0.0000000000000000e+00  1.5817528900841591e-06 5.9767658156631003e-10 0.0000000000000000e+00  1.5813801482242124e-06 -5.2216838928614720e-10 0.0000000000000000e+00  1.4335556820738974e-06 4.2692311440236287e-07 0.0000000000000000e+00  1.5835795994942683e-06 -4.5524806195803928e-10 0.0000000000000000e+00  1.5809934687766610e-06 5.1144031956643093e-10 0.0000000000000000e+00  1.5831904621848875e-06 4.6371055716908789e-10 0.0000000000000000e+00  1.5743861750675547e-06 1.7700266625800933e-09 0.0000000000000000e+00  1.5824704317435999e-06 1.0237713815586300e-10 0.0000000000000000e+00  1.5774632662657056e-06 4.3510521832980831e-10 0.0000000000000000e+00  1.5811551303445282e-06 2.7793718284941700e-10 0.0000000000000000e+00  1.5743686718822721e-06 1.1528259169911312e-10 0.0000000000000000e+00  1.5829650084108731e-06 -1.5193330320960000e-09 0.0000000000000000e+00  1.5782419216878658e-06 9.2555499198074288e-10 0.0000000000000000e+00  1.5767835970715743e-06 -5.8287881882706210e-10 0.0000000000000000e+00  1.5804122866400387e-06 6.4696496363342111e-10 0.0000000000000000e+00  1.5826450113737472e-06 1.9730698002842913e-09 0.0000000000000000e+00  1.5719780781901306e-06 -1.8301344706135561e-09 0.0000000000000000e+00  1.5718427157025670e-06 1.7123443239614942e-09 0.0000000000000000e+00  1.5744211985208244e-06 -2.4454116595414744e-10 0.0000000000000000e+00  1.5711680692622122e-06 -1.1494186840081072e-09 0.0000000000000000e+00  1.5751834897299259e-06 -9.6343432161726162e-10 0.0000000000000000e+00  1.5828671918368648e-06 -4.3087068889788865e-10 0.0000000000000000e+00  1.5837757996256609e-06 -2.9248490924505000e-10 0.0000000000000000e+00  1.5844707910662101e-06 3.7162856964295832e-10 0.0000000000000000e+00  1.5767903837661030e-06 -1.4934584163215583e-09 0.0000000000000000e+00  1.4512469074599927e-06 -8.9339189699672456e-08 0.0000000000000000e+00  1.6211639421011138e-06 -4.8212381001130029e-08 0.0000000000000000e+00  1.5735366973238983e-06 -1.5527949326293475e-08 0.0000000000000000e+00  1.5834382569578628e-06 -4.8292378378502950e-10 0.0000000000000000e+00  1.5842813284160135e-06 -1.0633276939496790e-09 0.0000000000000000e+00  1.5843223748873266e-06 -2.5102608954222606e-10 0.0000000000000000e+00  1.0143354225693477e-21 -4.1331798527124818e-21 0.0000000000000000e+00  1.3899032474063264e-21 3.4525077177099922e-21 0.0000000000000000e+00  1.5834766036620542e-06 7.6238380154654938e-10 0.0000000000000000e+00  1.5831349905828211e-06 -2.5452465442495076e-09 0.0000000000000000e+00  1.5845668756242794e-06 3.0843422569623688e-10 0.0000000000000000e+00  1.5723295101546628e-06 7.0059001292632523e-10 0.0000000000000000e+00  1.5753765344084251e-06 8.4864538311745819e-10 0.0000000000000000e+00  1.5840289952254772e-06 -2.1291128817913010e-08 0.0000000000000000e+00  1.5639428900345409e-06 -9.8293428132545353e-08 0.0000000000000000e+00  1.5430572581385577e-06 1.6892196121058130e-09 0.0000000000000000e+00  1.5732036002769348e-06 1.3727681363862779e-09 0.0000000000000000e+00  1.5735908977618974e-06 -1.3517395002377684e-10 0.0000000000000000e+00  1.5122494482289777e-06 6.3187268856347917e-10 0.0000000000000000e+00  1.5777713131345071e-06 2.0671188908194199e-08 0.0000000000000000e+00  1.5830913111141613e-06 -2.2081982013581803e-10 0.0000000000000000e+00  1.5675228690757373e-06 1.8595988457693210e-09 0.0000000000000000e+00  1.1910818364011787e-08 -1.8652482762301094e-06 0.0000000000000000e+00  1.5833623531736571e-06 9.7832446388906369e-10 0.0000000000000000e+00  1.7489558820204675e-08 1.6130929204786916e-06 0.0000000000000000e+00  -7.0335361839658168e-20 -6.7786652822130196e-20 0.0000000000000000e+00  -1.3189979456813121e-21 9.1337062045028483e-21 0.0000000000000000e+00  6.3854388904072587e-22 1.0704543116210433e-20 0.0000000000000000e+00  5.7048751596453712e-22 -1.1251754605914162e-20 0.0000000000000000e+00  -1.3119991871052791e-21 -1.1483240409911552e-20 0.0000000000000000e+00  -7.0912628701140866e-20 5.9505813614829632e-20 0.0000000000000000e+00  1.5780954927196957e-06 -1.0959984255582866e-09 0.0000000000000000e+00  1.5220398191325646e-06 -1.2066906934853152e-09 0.0000000000000000e+00  1.5222980087813595e-06 -3.6733545157686012e-09 0.0000000000000000e+00  1.5206189354660374e-06 5.3782939525129797e-10 0.0000000000000000e+00  1.5213980244864487e-06 -2.0838605446089762e-10 0.0000000000000000e+00  1.5201140350893703e-06 1.6723702395006546e-09 0.0000000000000000e+00  1.5699335904963311e-06 2.0788160670387142e-09 0.0000000000000000e+00  1.5767114926086777e-06 2.2947492494818382e-08 0.0000000000000000e+00  1.5704363778623447e-06 -2.7476907786438376e-10 0.0000000000000000e+00  1.5813845718892089e-06 -9.1255687923225051e-10 0.0000000000000000e+00  1.5837159252352461e-06 4.4540173141656328e-10 0.0000000000000000e+00  1.5842293186682743e-06 -3.4864507478371157e-10 0.0000000000000000e+00  -2.8869801952428338e-07 2.3424419076526032e-06 0.0000000000000000e+00  -5.8970048278207833e-07 -2.4413914707333309e-06 0.0000000000000000e+00  1.5250538882134845e-06 -5.1908863607417833e-09 0.0000000000000000e+00  1.5672259510412842e-06 1.9593664725980385e-09 0.0000000000000000e+00  1.5844056706824509e-06 -3.1813668401418085e-10 0.0000000000000000e+00  1.5840648469249513e-06 -3.6175509844547647e-10 0.0000000000000000e+00  1.1241589757056113e-20 1.3029778528451785e-22 0.0000000000000000e+00  1.4009948252170562e-06 1.0159453658789796e-07 0.0000000000000000e+00  6.5166863184568154e-06 7.6386474055198173e-06 0.0000000000000000e+00  6.6243566822326603e-06 -8.1522384230687645e-06 0.0000000000000000e+00  1.5849923645821697e-06 -2.5476428730305174e-10 0.0000000000000000e+00  1.5092196595798592e-06 1.5213025239523057e-09 0.0000000000000000e+00  1.1203212882004689e-20 2.9829629998205815e-23 0.0000000000000000e+00  1.5160460501306692e-06 -2.4372439744412244e-09 0.0000000000000000e+00  1.5850070421932199e-06 2.7964981329024483e-10 0.0000000000000000e+00  1.5633743493502352e-06 1.2581972695074687e-07 0.0000000000000000e+00  1.5822854888834409e-06 6.4841920991022463e-11 0.0000000000000000e+00  1.1706048568580704e-20 -1.1140678507195178e-22 0.0000000000000000e+00  1.5841665921650928e-06 6.3609468474094183e-10 0.0000000000000000e+00  1.5835585349469215e-06 -7.0617641964741821e-10 0.0000000000000000e+00  1.5705209183056759e-06 -5.3535292727650736e-10 0.0000000000000000e+00  1.5747706003298217e-06 3.0019752621534012e-10 0.0000000000000000e+00  1.5708753226484479e-06 -1.1921255468024247e-09 0.0000000000000000e+00  1.1182194082379436e-20 9.1565691544717603e-23 0.0000000000000000e+00  1.5756955323910261e-06 -4.5800256815969994e-10 0.0000000000000000e+00  1.5843312618856304e-06 1.2613141906748116e-09 0.0000000000000000e+00  1.5240659972841397e-06 3.5777793630450488e-09 0.0000000000000000e+00  1.5840808107072747e-06 -6.8529831424224909e-11 0.0000000000000000e+00  1.5843249505388954e-06 -7.8786236907683415e-09 0.0000000000000000e+00  1.5828993206357395e-06 2.1867211537968215e-10 0.0000000000000000e+00  1.5831012317645839e-06 -3.7216823841934681e-10 0.0000000000000000e+00  1.5279483589684186e-06 -2.3933996671827812e-08 0.0000000000000000e+00  1.5746544565251646e-06 9.6072296304459036e-10 0.0000000000000000e+00  1.5740372787098623e-06 -1.4085467330000132e-09 0.0000000000000000e+00  1.5724637931035587e-06 -1.0191498164399339e-09 0.0000000000000000e+00  1.5751971543604138e-06 -2.5741969794067277e-09 0.0000000000000000e+00  1.5827947162260595e-06 4.8824371252353164e-10 0.0000000000000000e+00  1.1518966939585935e-20 -1.3629027418365614e-22 0.0000000000000000e+00  1.4658217813030700e-06 -8.4808950924548152e-07 0.0000000000000000e+00  8.6571683303881825e-07 -1.5963524438913279e-06 0.0000000000000000e+00  3.6909804438523751e-07 -1.2000254453841896e-06 0.0000000000000000e+00  1.1327263150743428e-06 -4.0637682852710172e-07 0.0000000000000000e+00  1.5845667229543635e-06 8.2625826714978846e-11 0.0000000000000000e+00  1.5832687118473388e-06 -8.3550066515822975e-10 0.0000000000000000e+00  1.5830728774455913e-06 1.3449721940012846e-10 0.0000000000000000e+00  1.5830373581678634e-06 -3.0283745808513051e-10 0.0000000000000000e+00  1.5809386838233844e-06 -3.4193944825046973e-09 0.0000000000000000e+00  1.5737582545074666e-06 3.5064334050634473e-09 0.0000000000000000e+00  1.2304593379503684e-20 2.2618737829970006e-23 0.0000000000000000e+00  1.5726289265198560e-06 2.1956025069447211e-09 0.0000000000000000e+00  1.5830913565502325e-06 -4.6893665982850669e-10 0.0000000000000000e+00  1.5830455752307464e-06 6.9763271605955132e-12 0.0000000000000000e+00  1.5722633540175535e-06 1.4113023495483124e-09 0.0000000