<?xml version="1.0"?>
<VTKFile type="UnstructuredGrid"  version="0.1"  >
<UnstructuredGrid>
<Piece  NumberOfPoints="1079" NumberOfCells="1944">
<Points>
<DataArray  type="Float64"  NumberOfComponents="3"  format="ascii">0.08500000000000001 0.02 0  0.005 0.02 0  0.005 0.03 0  0 0.03 0  0 0 0  0.005 0 0  0.005 0.01 0  0.08500000000000001 0.01 0  0 0.015 0  0 0.0075 0  0 0.0225 0  0.04500000000000001 0.02 0  0.04500000000000001 0.01 0  0.025 0.01 0  0.025 0.02 0  0.065 0.02 0  0.065 0.01 0  0.035 0.02 0  0.035 0.01 0  0.07500000000000001 0.02 0  0.07500000000000001 0.01 0  0.015 0.02 0  0.015 0.01 0  0.05500000000000001 0.01 0  0.05500000000000001 0.02 0  0.07000000000000001 0.01 0  0.07000000000000001 0.02 0  0.05 0.01 0  0.03 0.01 0  0.03 0.02 0  0.04000000000000001 0.01 0  0.01 0.01 0  0.02 0.02 0  0.06 0.015 0  0.08500000000000001 0.015 0  0.05 0.02 0  0.07250000000000001 0.015 0  0.04000000000000001 0.02 0  0.03750000000000001 0.015 0  0.0525 0.015 0  0.02 0.01 0  0.01 0.02 0  0.0275 0.015 0  0.0125 0.015 0  0.08000000000000002 0.01 0  0.08000000000000002 0.02 0  0.0325 0.014375 0  0.04291666666666667 0.015 0  0.065 0.015 0  0.005 0.005 0  0.005 0.015 0  0.02208333333333334 0.015 0  0.07791666666666668 0.015 0  0.005 0.025 0  0.06 0.01 0  0.06 0.02 0  0.01729166666666667 0.01572916666666667 0  0.04770833333333334 0.01427083333333334 0  0.06875000000000001 0.01625 0  0.008750000000000001 0.01625 0  0.05625000000000001 0.01625 0  0 0.00375 0  0 0.01875 0  0 0.01125 0  0 0.02625 0  0.08145833333333334 0.01354166666666667 0  0.0675 0.01 0  0.0075 0.0125 0  0.0625 0.0175 0  0.0575 0.0125 0  0.0625 0.0125 0  0.08207465277777778 0.01707465277777778 0  0.06767857142857144 0.01321428571428571 0  0.0175 0.01 0  0.01875 0.01291382575757576 0  0.0475 0.02 0  0.04564168086314595 0.01679860519591141 0  0.00296875 0.0125 0  0.0025 0.03 0  0.0025 0 0  0.00296875 0.0175 0  0.01521990740740741 0.0132349537037037 0  0.0497800925925926 0.0167650462962963 0  0.0325 0.02 0  0.03474264705882353 0.01674632352941176 0  0.03750000000000001 0.02 0  0.03025735294117647 0.01674632352941176 0  0.0275 0.02 0  0.0525 0.02 0  0.0125 0.01 0  0.04020833333333334 0.01322916666666667 0  0.03750000000000001 0.01 0  0.0225 0.02 0  0.02479166666666667 0.01677083333333333 0  0.07520833333333335 0.01322916666666667 0  0.07250000000000001 0.01 0  0.07520833333333335 0.01677083333333334 0  0.07250000000000001 0.02 0  0.04020833333333334 0.01677083333333333 0  0.0225 0.01 0  0.02375 0.01262152777777778 0  0.04250000000000001 0.02 0  0.04250000000000001 0.01 0  0.07750000000000001 0.01 0  0.07750000000000001 0.02 0  0.05036151960784314 0.01294424019607843 0  0.0705560064935065 0.01284699675324675 0  0.05458333333333334 0.01291666666666666 0  0.0021875 0.024375 0  0.005 0.0275 0  0.01125 0.0175 0  0.01463848039215686 0.01705575980392157 0  0.01 0.01375 0  0.03625 0.0125 0  0.0021875 0.009375 0  0.05375000000000001 0.0175 0  0.07125000000000001 0.0175 0  0.005 0.0025 0  0.0021875 0.005625 0  0.02655220103578155 0.01234889948210923 0  0.002187499999999999 0.020625 0  0.02979166666666667 0.01302083333333333 0  0.0525 0.01 0  0.07895833333333334 0.0125 0  0.01994277885235332 0.01704213007736944 0  0.07934656179076068 0.01733823814273861 0  0.04505722114764669 0.01295786992263056 0  0.06625 0.0175 0  0.006250000000000001 0.0175 0  0.05750000000000001 0.02 0  0.05875000000000001 0.0175 0  0.005 0.0225 0  0.005 0.0075 0  0.002375 0.027375 0  0.002375 0.002625000000000001 0  0.0475 0.01 0  0.0175 0.02 0  0.0325 0.01 0  0.03375 0.0121875 0  0.04261299435028249 0.01749205508474576 0  0.08500000000000001 0.0125 0  0.08250000000000002 0.01 0  0.02121963399965531 0.01224824108143494 0  0.0675 0.02 0  0.0125 0.02 0  0.02720152243589744 0.0175 0  0.03715165441176471 0.0175 0  0.08500000000000001 0.0175 0  0.0275 0.01 0  0.0025 0.0149560546875 0  0.0075 0.01 0  0.0075 0.02 0  0.06526785714285716 0.0125 0  0.01281031447005516 0.0125 0  0.0625 0.015 0  0.06 0.0125 0  0.05750000000000001 0.01 0  0.0625 0.02 0  0.0625 0.01 0  0.08250000000000002 0.02 0  0.04260103740101855 0.01252623201412851 0  0.02240052247582197 0.01750164767101344 0  0.07293583459427785 0.01238479732953041 0  0.005234374999999999 0.012265625 0  0.03528131980640358 0.01454684009679821 0  0.0325 0.01760027210036557 0  0.02532593822924343 0.01428227733767297 0  0.08009952069819683 0.01527145502895417 0  0.01987282359856536 0.01482587683689801 0  0.04828232595121382 0.01210233572595705 0  0.01671767404878618 0.01789766427404295 0  0.05125 0.01829007549029352 0  0.05247215456215357 0.01288882122882024 0  0.07338729919678716 0.01799385040160642 0  0.03838729919678716 0.01200614959839357 0  0.07717482110586968 0.01780301674207099 0  0.04771860040890012 0.01773306039388322 0  0.03125 0.01160380747126437 0  0.06875000000000001 0.01154265873015873 0  0.07625000000000001 0.01154065860215054 0  0.01625 0.01153997817696946 0  0.068125 0.018125 0  0.05437500000000001 0.015625 0  0.066875 0.015625 0  0.07039794950204951 0.01494384850614853 0  0.05687500000000001 0.018125 0  0.006875 0.015625 0  0.008749999999999999 0.01833333333333333 0  0.010625 0.015625 0  0.05625 0.01416666666666667 0  0.05812500000000001 0.015625 0  0.0449088595298192 0.01494528408816316 0  0 0.016875 0  0 0.013125 0  0.04962452342047931 0.01478673066448802 0  0.0153754765795207 0.01521326933551198 0  0.0771774565913315 0.01322498191305479 0  0.01857756431135545 0.01840228599899994 0  0.04642243568864456 0.01159771400100006 0  0.08125000000000002 0.01155637254901961 0  0.08317650804863432 0.0118234919513657 0  0.08288217288011697 0.01511353252923977 0  0.02837253504384828 0.0117177464035174 0  0.03896057962520807 0.01831163685754031 0  0.01125 0.0114244162490927 0  0.00935910490099115 0.0119067901980177 0  0.02946078431372549 0.01495404411764706 0  0.02875 0.0185829434466942 0  0.002968749999999999 0.0225 0  0.064375 0.016875 0  0.00296875 0.0075 0  0 0.001875 0  0 0.005625 0  0 0.009375 0  0 0.020625 0  0 0.024375 0  0 0.028125 0  0.06062500000000001 0.01812500000000001 0  0.008303571428571429 0.01446428571428572 0  0.01375 0.01865917058160413 0  0.05137790313978056 0.01143372888932909 0  0.04125000000000001 0.01131513063942604 0  0.04101690263896279 0.01844430285842771 0  0.02399563533148224 0.01844349395710867 0  0.08125000000000002 0.01868815426145731 0  0.05354684380692146 0.01145463537600848 0  0.01699195823639423 0.01315138909884649 0  0.07598357371794873 0.015 0  0.04098357371794872 0.015 0  0.003744047619047619 0.00375 0  0.003344630281690141 0.02580853873239437 0  0.04625 0.0187354532243972 0  0.06388392857142858 0.01138392857142858 0  0.06375 0.01375 0  0.05875 0.01375 0  0.06375 0.02 0  0.00622802734375 0.01372802734375 0  0.003630681818181818 0.001369318181818182 0  0.003630681818181818 0.02863068181818182 0  0.06125 0.01625 0  0.06125 0.01125 0  0.05625000000000001 0.01 0  0.05875 0.01125 0  0.06125 0.01375 0  0.08337864763241221 0.0183786476324122 0  0.05213634138653413 0.01674432930673294 0  0.04375000000000001 0.01 0  0.07424178685897437 0.01529258578431373 0  0.03924178685897436 0.01529258578431372 0  0.03410139294454583 0.01843406022904556 0  0.03089860705545417 0.01843406022904556 0  0.02094160484316717 0.01850229584291991 0  0.04375000000000001 0.02 0  0.04437042160883325 0.01820701498672512 0  0.04816311705429156 0.01600061344661149 0  0.07151224904251052 0.0114127410511319 0  0.04395528506193162 0.01639387970349481 0  0.0128750358694518 0.0167500179347259 0  0.02855808448399799 0.01642839899839741 0  0.02812690373330794 0.01340955081400569 0  0.08358500641945087 0.01351822349116885 0  0.05590277777777778 0.01173611111111111 0  0.06683110430364615 0.01164926404662283 0  0.02573206694914602 0.01842532451809762 0  0.01438126661842046 0.01166701193099454 0  0.02384283211216029 0.01526549696571563 0  0.03625 0.02 0  0.004609375000000001 0.0182421875 0  0.003398437500000001 0.01943359375 0  0.001728307845744682 0.01894718251329787 0  0.004377805359085963 0.01656966216675735 0  0.04649673309852075 0.0153889662370871 0  0.03615513600614297 0.01592654988586041 0  0.03316985071935832 0.01598763605018279 0  0.03110111603888768 0.01529816275177977 0  0.01370614113484869 0.0138804542047638 0  0.04930041102671841 0.01842260568883502 0  0.07875000000000001 0.02 0  0.0745395359848485 0.01165101111925709 0  0.03860755698543604 0.01373741558556884 0  0.02605038706571737 0.01573944002207753 0  0.07559826163500957 0.01841729376139847 0  0.04437500000000001 0.01149157931286774 0  0.06874116707361365 0.01454618473032123 0  0.003761917372881356 0.0239307468220339 0  0.003984374999999999 0.01125 0  0.003768503289473684 0.01392539576480263 0  0.001796875 0.0111328125 0  0.003761917372881356 0.008930746822033899 0  0.005 0.00625 0  0.003761917372881355 0.0210692531779661 0  0.06633928571428571 0.01410714285714285 0  0.006484375 0.01125 0  0.08364120589325512 0.01657288979763549 0  0.03576267476503373 0.0184116442851204 0  0.07370875846579374 0.0137848203678562 0  0.06964285714285715 0.01758928571428571 0  0.05520833333333334 0.01833333333333333 0  0.06491071428571429 0.01839285714285714 0  0.0510098951944636 0.01559941474766356 0  0.01786087179886325 0.0115702210443714 0  0.01972197383235524 0.01160576093166696 0  0.01804697593127788 0.01433503795474974 0  0.001644074528704677 0.01642892723865279 0  0.00125 0.03 0  0.001497685185185185 0.001267746913580247 0  0.07315451164202422 0.01643443118912983 0  0.001233906745910645 0.0140625 0  0.01162635071030191 0.01362229857939618 0  0.01528023503083844 0.01845923557506155 0  0.06625 0.02 0  0.07695012019230771 0.01624387078484555 0  0.03139091092855769 0.01320776147621796 0  0.03857339107781042 0.01675295051810485 0  0.001754993120977522 0.02590789105493891 0  0.002288757784711197 0.00412546923654445 0  0.07914382119690884 0.01404430049871201 0  0.001391810103286306 0.01257390899021902 0  0.0419501201923077 0.01614675005432421 0  0.001484375 0.007018229166666667 0  0.001484375 0.02201822916666666 0  0.048
[...]
<PointData  Vectors="velocity"> 
<DataArray  type="Float64"  Name="velocity"  NumberOfComponents="3" format="ascii">5.1587530683789872e-06 3.8226818158251700e-20 0.0000000000000000e+00  1.0578796137435772e-19 -1.2136080848022765e-19 0.0000000000000000e+00  4.5598331266985774e-18 -2.4770763559917275e-04 0.0000000000000000e+00  -5.2939559203393941e-18 -2.4770763559917226e-04 0.0000000000000000e+00  -5.1285197978287932e-18 2.4770763559917242e-04 0.0000000000000000e+00  4.8390065834352335e-18 2.4770763559917220e-04 0.0000000000000000e+00  1.0420969044297730e-19 9.4142609320488243e-20 0.0000000000000000e+00  5.2980169395084405e-06 -3.8970039412998801e-20 0.0000000000000000e+00  1.2223537289659702e-20 -5.6824295251517209e-23 0.0000000000000000e+00  -1.2534257195986391e-21 1.0109284410219617e-19 0.0000000000000000e+00  4.8215119297758386e-22 -1.0478122630187015e-19 0.0000000000000000e+00  9.9380617783793517e-20 -3.7297548981807819e-22 0.0000000000000000e+00  8.3021946042346968e-20 5.1772130501437478e-22 0.0000000000000000e+00  9.9484755502653924e-20 2.9527748801620129e-22 0.0000000000000000e+00  8.1821807728143237e-20 -3.5140057064005350e-22 0.0000000000000000e+00  9.4618209923110499e-20 3.1169800925191348e-22 0.0000000000000000e+00  9.2711807243745972e-20 1.2907005621890382e-22 0.0000000000000000e+00  7.6621251352799029e-20 -1.5719973310575274e-22 0.0000000000000000e+00  1.0899642506993204e-19 -9.7591026519528908e-23 0.0000000000000000e+00  9.6531161171887313e-20 5.7967665421345961e-22 0.0000000000000000e+00  8.3729243863441311e-20 3.2509707354734131e-22 0.0000000000000000e+00  8.1660435059171504e-20 -1.8758556082706521e-22 0.0000000000000000e+00  7.8827046629654200e-20 -1.6515485227699586e-22 0.0000000000000000e+00  9.3500811210626422e-20 -1.0532789750214504e-21 0.0000000000000000e+00  8.6594832242760176e-20 3.9440782462116312e-22 0.0000000000000000e+00  8.4731668683795869e-20 1.5075599228040522e-22 0.0000000000000000e+00  1.0171423997398893e-19 -4.0461581972074761e-22 0.0000000000000000e+00  9.4735741258011477e-20 3.0385056247754128e-22 0.0000000000000000e+00  9.4628624559965849e-20 5.1546555809614425e-23 0.0000000000000000e+00  7.9868818416511657e-20 -1.9059604394849373e-22 0.0000000000000000e+00  8.4777887690576997e-20 3.0061205816275866e-22 0.0000000000000000e+00  9.5356453490882817e-20 5.2564034879571350e-22 0.0000000000000000e+00  8.2846488457296709e-20 -1.6527964926914274e-22 0.0000000000000000e+00  1.3154465171458090e-05 -1.9216628281160202e-09 0.0000000000000000e+00  1.2633610031747267e-05 2.6492448056584753e-23 0.0000000000000000e+00  8.1027437869903321e-20 6.6727252762222296e-23 0.0000000000000000e+00  1.3154221802974040e-05 4.4347108218930911e-09 0.0000000000000000e+00  9.6497422996338762e-20 -8.8228521253875738e-22 0.0000000000000000e+00  1.3143272872462244e-05 -6.3976066315074559e-09 0.0000000000000000e+00  1.3140762126888797e-05 -7.1656872655416488e-10 0.0000000000000000e+00  8.6580190928417364e-20 4.3055154660507880e-23 0.0000000000000000e+00  9.6660797350987467e-20 -1.9169509090039582e-21 0.0000000000000000e+00  1.3142457280492822e-05 -3.3447467850137517e-10 0.0000000000000000e+00  1.3115046876189334e-05 -4.9775859739036438e-08 0.0000000000000000e+00  8.3600033535755640e-20 -3.4444857015270345e-22 0.0000000000000000e+00  8.8631029759721449e-20 1.6861000017488058e-21 0.0000000000000000e+00  1.3139416182718744e-05 3.8698815810387864e-10 0.0000000000000000e+00  1.3152736543012138e-05 -1.2820620185829806e-09 0.0000000000000000e+00  1.3149186910783684e-05 -1.1066706954267460e-09 0.0000000000000000e+00  -6.6678930327541167e-21 1.1624028451129565e-19 0.0000000000000000e+00  9.9366349541518207e-06 -5.0759501861790148e-07 0.0000000000000000e+00  1.3137353372062406e-05 3.2615060438272695e-09 0.0000000000000000e+00  1.3133917275577602e-05 6.7619162982989438e-10 0.0000000000000000e+00  -9.8188627213456265e-21 -1.3786750078276050e-19 0.0000000000000000e+00  8.1748708974967934e-20 1.6786960063103284e-22 0.0000000000000000e+00  9.4096778245753954e-20 1.1843232260157127e-21 0.0000000000000000e+00  1.3143482129025111e-05 -4.4344183827615448e-09 0.0000000000000000e+00  1.3147737339609280e-05 3.4770895578913447e-09 0.0000000000000000e+00  1.3149287699553929e-05 -3.3537116733895357e-09 0.0000000000000000e+00  1.2945608058019787e-05 -4.1442678567101206e-07 0.0000000000000000e+00  1.3139939914814829e-05 -9.8871033934646488e-09 0.0000000000000000e+00  -5.7726941296997073e-20 1.7427789474603071e-20 0.0000000000000000e+00  5.3011468551311016e-21 -5.2195907496675464e-20 0.0000000000000000e+00  7.2354833529043618e-21 5.4428113580056699e-20 0.0000000000000000e+00  -6.5784069094100294e-20 1.4586902277387458e-20 0.0000000000000000e+00  1.3013156087249978e-05 -1.2575206049796562e-07 0.0000000000000000e+00  7.8533974104831072e-20 -2.3542448547186742e-22 0.0000000000000000e+00  1.2964326467773899e-05 7.5094744064963702e-07 0.0000000000000000e+00  1.3124797757577722e-05 3.8219052118642644e-10 0.0000000000000000e+00  1.3130672042233606e-05 1.1045683491693770e-09 0.0000000000000000e+00  1.3142432037904556e-05 -5.6479009550019076e-09 0.0000000000000000e+00  1.2998963839238073e-05 2.4043847367827531e-07 0.0000000000000000e+00  1.3140981079627504e-05 -2.6623650564886676e-09 0.0000000000000000e+00  8.8278757057072096e-20 -1.9879830617932556e-23 0.0000000000000000e+00  1.3130509584066724e-05 -1.1347751217717874e-10 0.0000000000000000e+00  1.0299007487647401e-19 1.5698453899888077e-21 0.0000000000000000e+00  1.3152717365646922e-05 -1.0017550272276294e-08 0.0000000000000000e+00  6.2906971068746624e-06 5.1451441812524922e-06 0.0000000000000000e+00  -2.7340926941964446e-19 -2.4770763559917350e-04 0.0000000000000000e+00  -4.1533180658342379e-19 2.4770763559917372e-04 0.0000000000000000e+00  6.5069385831719098e-06 -6.3861281886345453e-06 0.0000000000000000e+00  1.3125586489845693e-05 -1.8041421471485522e-08 0.0000000000000000e+00  1.3136743959671946e-05 1.1805234073545992e-08 0.0000000000000000e+00  8.9678774774839696e-20 7.9417282842817309e-22 0.0000000000000000e+00  1.3135618956019590e-05 -4.0542692710700555e-09 0.0000000000000000e+00  9.5974583842772919e-20 5.7169504215387217e-22 0.0000000000000000e+00  1.3138154530543599e-05 -4.1729829065533780e-09 0.0000000000000000e+00  1.0034662141031281e-19 1.9988232701985571e-22 0.0000000000000000e+00  8.7242420777765644e-20 -1.6536741665457191e-23 0.0000000000000000e+00  9.7162247906125571e-20 5.4516465101564902e-22 0.0000000000000000e+00  1.3142395598727479e-05 4.0669197272211782e-09 0.0000000000000000e+00  8.5599471270567864e-20 2.8193223606647987e-22 0.0000000000000000e+00  9.6022943835349170e-20 2.5413021771629274e-22 0.0000000000000000e+00  1.3134103446993381e-05 1.0211607178090613e-09 0.0000000000000000e+00  1.3146905110153638e-05 2.0962116810308397e-09 0.0000000000000000e+00  9.2971813636219050e-20 7.3819478185682920e-23 0.0000000000000000e+00  1.3144392521226746e-05 9.0182974894569517e-09 0.0000000000000000e+00  1.0103001600543518e-19 1.0751656484500777e-21 0.0000000000000000e+00  1.3150468418648810e-05 -1.6696435219830242e-08 0.0000000000000000e+00  8.2352135745791774e-20 2.9351097651186054e-23 0.0000000000000000e+00  1.3122786733700800e-05 8.8645425497230459e-09 0.0000000000000000e+00  9.8784900324131392e-20 -1.1737749563228539e-23 0.0000000000000000e+00  8.6168179906188386e-20 8.3342925818469391e-22 0.0000000000000000e+00  9.4404113626326151e-20 1.6219320817864153e-21 0.0000000000000000e+00  9.8433276217024796e-20 -6.4486412182027511e-22 0.0000000000000000e+00  1.3145207099925495e-05 9.9546495691872207e-09 0.0000000000000000e+00  1.3148285557286315e-05 1.5543567630045600e-08 0.0000000000000000e+00  1.3144448125294369e-05 1.6259299705645312e-09 0.0000000000000000e+00  -2.7143842691977756e-06 -1.4431687081700799e-05 0.0000000000000000e+00  1.8723188994483978e-20 -2.0018553381720401e-19 0.0000000000000000e+00  1.3190031562636550e-05 -1.1025983627819817e-07 0.0000000000000000e+00  1.3162848982558717e-05 -3.6263947099331441e-08 0.0000000000000000e+00  1.2989625506100556e-05 3.4707389216486046e-08 0.0000000000000000e+00  1.3113136795103211e-05 -1.4087562407934252e-08 0.0000000000000000e+00  2.2095607979072210e-06 1.1765362700501338e-05 0.0000000000000000e+00  1.3124549760943693e-05 -2.1731957636966493e-11 0.0000000000000000e+00  1.3152453767361934e-05 7.9701378124645970e-12 0.0000000000000000e+00  3.8972143419950599e-20 1.0991150676530260e-19 0.0000000000000000e+00  -2.3997369408684775e-06 1.2513600150101272e-05 0.0000000000000000e+00  1.3122733515801756e-05 -9.0015830158709188e-09 0.0000000000000000e+00  2.1971748383733148e-06 -1.3511367091318956e-05 0.0000000000000000e+00  1.3145356052736818e-05 -2.1754434042372872e-09 0.0000000000000000e+00  8.5075330246220773e-20 -6.9977741190661443e-22 0.0000000000000000e+00  1.3119870640581566e-05 -4.0104490637269913e-08 0.0000000000000000e+00  1.3132340666384515e-05 1.6872945885808861e-10 0.0000000000000000e+00  1.3126634329964468e-05 6.0615234542636589e-08 0.0000000000000000e+00  1.3148590590325368e-05 -2.9225354090550931e-09 0.0000000000000000e+00  1.3142912784857688e-05 -1.5528863804751090e-08 0.0000000000000000e+00  1.3114868603673862e-05 -2.4120901949594858e-06 0.0000000000000000e+00  1.0033475639788074e-19 -1.2971399812857887e-21 0.0000000000000000e+00  1.3118996360066298e-05 -4.6579803554446796e-09 0.0000000000000000e+00  1.1344452704309793e-21 -1.2411853963767054e-19 0.0000000000000000e+00  1.0047480677126474e-21 1.0902121766053865e-19 0.0000000000000000e+00  -2.9697788320989599e-05 -3.2904256693609418e-05 0.0000000000000000e+00  -2.4203810324189715e-05 2.7087184182104040e-05 0.0000000000000000e+00  9.2932299767177873e-20 2.6639292241252211e-23 0.0000000000000000e+00  1.0598230782168847e-19 1.4984826082248104e-21 0.0000000000000000e+00  8.5339041980083243e-20 1.5195839396462983e-22 0.0000000000000000e+00  1.3119628513818953e-05 1.5988921674395393e-08 0.0000000000000000e+00  1.3125110519537311e-05 9.6611795975688970e-09 0.0000000000000000e+00  1.1939745520740213e-05 -3.2300026911557958e-21 0.0000000000000000e+00  8.7229731775464689e-20 -3.2758972733658613e-21 0.0000000000000000e+00  1.3124931666013804e-05 3.7334983677862099e-09 0.0000000000000000e+00  9.2940290877314899e-20 5.9644180970002656e-22 0.0000000000000000e+00  8.7799749066189362e-20 -1.9197566988234209e-22 0.0000000000000000e+00  1.3137785365477472e-05 -1.6652653349779695e-09 0.0000000000000000e+00  1.3152068362617402e-05 1.4014391932774933e-09 0.0000000000000000e+00  1.1926116384831057e-05 4.2210288281615642e-21 0.0000000000000000e+00  9.1411948206745663e-20 -1.1746206908082910e-21 0.0000000000000000e+00  4.8877536280708077e-06 -4.6425782179379686e-07 0.0000000000000000e+00  9.4682347445706756e-20 3.0410128953916233e-21 0.0000000000000000e+00  1.1557414669494753e-19 -4.4519528746337249e-21 0.0000000000000000e+00  1.3138361171163520e-05 -5.8905726356242617e-09 0.0000000000000000e+00  1.3093384849967927e-05 -1.5100212945020701e-08 0.0000000000000000e+00  1.3155656074562884e-05 8.9815791141789911e-11 0.0000000000000000e+00  1.3130838361599651e-05 8.2737058643641964e-09 0.0000000000000000e+00  9.0891272707452417e-20 7.8034394034638965e-23 0.0000000000000000e+00  1.0930101928540698e-19 2.6004266726485644e-22 0.0000000000000000e+00  8.9051883528176774e-20 -1.7468324740287733e-21 0.0000000000000000e+00  8.5826805667311075e-20 2.0538395312845798e-21 0.0000000000000000e+00  1.3128371935776456e-05 -2.1220814886616908e-09 0.0000000000000000e+00  1.3129990508471644e-05 5.0127549640725264e-09 0.0000000000000000e+00  1.3126928432657956e-05 -4.3486706899467651e-09 0.0000000000000000e+00  1.1911037075780119e-05 3.5596292757009805e-06 0.0000000000000000e+00  1.3145204113035878e-05 -3.7793525828036945e-09 0.0000000000000000e+00  1.3123750170076511e-05 4.2592136225131958e-09 0.0000000000000000e+00  1.3141979754863235e-05 3.8713620969473470e-09 0.0000000000000000e+00  1.3068850664887397e-05 1.4696683591242291e-08 0.0000000000000000e+00  1.3136000464487297e-05 9.9998855493422968e-10 0.0000000000000000e+00  1.3094443156242378e-05 3.6046220453200645e-09 0.0000000000000000e+00  1.3124730053992340e-05 2.5782056921127599e-09 0.0000000000000000e+00  1.3068756090072895e-05 9.6384498995656821e-10 0.0000000000000000e+00  1.3140104058755817e-05 -1.2610604868062093e-08 0.0000000000000000e+00  1.3100908750512740e-05 7.7073827264094868e-09 0.0000000000000000e+00  1.3088800625244798e-05 -4.8442211023445148e-09 0.0000000000000000e+00  1.3118925342232672e-05 5.3920451101486259e-09 0.0000000000000000e+00  1.3137452815361933e-05 1.6402018752403395e-08 0.0000000000000000e+00  1.3048911227598252e-05 -1.5191494707498363e-08 0.0000000000000000e+00  1.3047761334472813e-05 1.4205229080740599e-08 0.0000000000000000e+00  1.3069171238240060e-05 -2.0160152779168609e-09 0.0000000000000000e+00  1.3042632253401077e-05 -9.3459404118376848e-09 0.0000000000000000e+00  1.3075520586681633e-05 -7.9835910872442340e-09 0.0000000000000000e+00  1.3139290687977728e-05 -3.5783563360545527e-09 0.0000000000000000e+00  1.3146832796119947e-05 -2.4288932804080652e-09 0.0000000000000000e+00  1.3152601699831729e-05 3.0861472359085139e-09 0.0000000000000000e+00  1.3088822425609764e-05 -1.2402197487883736e-08 0.0000000000000000e+00  1.2045101587999508e-05 -7.3111001335091070e-07 0.0000000000000000e+00  1.3451613033978336e-05 -3.9716476691078697e-07 0.0000000000000000e+00  1.3061236834013381e-05 -1.2566317232770876e-07 0.0000000000000000e+00  1.3144031580387372e-05 -4.0095887743995198e-09 0.0000000000000000e+00  1.3151030637510780e-05 -8.8265197127229322e-09 0.0000000000000000e+00  1.3151369534263022e-05 -2.0826302606546276e-09 0.0000000000000000e+00  8.2663597054249637e-21 -3.2762086171959487e-20 0.0000000000000000e+00  1.2540920440677347e-20 2.8078218685245401e-20 0.0000000000000000e+00  1.3144346580402867e-05 6.3278114637308697e-09 0.0000000000000000e+00  1.3141466247457355e-05 -2.0465304103164986e-08 0.0000000000000000e+00  1.3153391888326229e-05 2.5527544430047983e-09 0.0000000000000000e+00  1.3051597195194481e-05 5.9076176410058687e-09 0.0000000000000000e+00  1.3077120376242882e-05 7.0253066141332106e-09 0.0000000000000000e+00  1.3148928558842962e-05 -1.7680989216121055e-07 0.0000000000000000e+00  1.2982045201150876e-05 -8.1602747481020716e-07 0.0000000000000000e+00  1.2808677044981905e-05 1.4030550110608807e-08 0.0000000000000000e+00  1.3059105905113118e-05 1.1393424761358340e-08 0.0000000000000000e+00  1.3062295074964513e-05 -1.1361896183227895e-09 0.0000000000000000e+00  1.2555465207294656e-05 6.0876980920037701e-09 0.0000000000000000e+00  1.3101342942245465e-05 1.7408155397342419e-07 0.0000000000000000e+00  1.3141149965531551e-05 -1.8263666764315334e-09 0.0000000000000000e+00  1.3011924125837494e-05 1.5447214545068165e-08 0.0000000000000000e+00  1.1280588882961305e-07 -1.5441179381240303e-05 0.0000000000000000e+00  1.3143394346633772e-05 8.1246362297694624e-09 0.0000000000000000e+00  1.5687130568355053e-07 1.3423690113561437e-05 0.0000000000000000e+00  -5.5681764055466973e-19 -5.5004119826719801e-19 0.0000000000000000e+00  -1.0608714659888402e-20 7.9877380968571490e-20 0.0000000000000000e+00  5.3847709871274016e-21 8.9393698272119304e-20 0.0000000000000000e+00  4.7150367457516781e-21 -8.9385838322271078e-20 0.0000000000000000e+00  -1.0340112405304972e-20 -9.5191386565420655e-20 0.0000000000000000e+00  -5.7527859000023976e-19 4.9454708427619520e-19 0.0000000000000000e+00  1.3099682493956142e-05 -9.0956207852383357e-09 0.0000000000000000e+00  1.2635653612974901e-05 -3.3072118784836926e-09 0.0000000000000000e+00  1.2635422678512613e-05 -3.0018304417746732e-08 0.0000000000000000e+00  1.2622587790504448e-05 4.3523986856635972e-09 0.0000000000000000e+00  1.2629046702324967e-05 -1.7721086185683773e-09 0.0000000000000000e+00  1.2618330951709729e-05 1.3991354331799913e-08 0.0000000000000000e+00  1.3031872456003636e-05 1.7271729839639558e-08 0.0000000000000000e+00  1.3088227278584071e-05 1.9051895679253722e-07 0.0000000000000000e+00  1.3036092202242560e-05 -2.2436444549507286e-09 0.0000000000000000e+00  1.3127205586754304e-05 -7.2506868482352649e-09 0.0000000000000000e+00  1.3146331593680234e-05 3.6960370444553884e-09 0.0000000000000000e+00  1.3150598181311084e-05 -2.8938579277126883e-09 0.0000000000000000e+00  -2.3295472493157087e-06 1.9359529058802866e-05 0.0000000000000000e+00  -4.7658311693323258e-06 -2.0126516779308491e-05 0.0000000000000000e+00  1.2659236272299597e-05 -4.3093412619806386e-08 0.0000000000000000e+00  1.3009432458015979e-05 1.6288022991300238e-08 0.0000000000000000e+00  1.3152059196778727e-05 -2.6409503704267399e-09 0.0000000000000000e+00  1.3149234428820256e-05 -3.0011671854700483e-09 0.0000000000000000e+00  9.2755110849376128e-20 1.0924106400833352e-21 0.0000000000000000e+00  1.1633935074532546e-05 8.5541992167274930e-07 0.0000000000000000e+00  5.3840190255831617e-05 6.2760219103630518e-05 0.0000000000000000e+00  5.4516172136637014e-05 -6.6836573837737536e-05 0.0000000000000000e+00  1.3156928512613422e-05 -2.1120945820060338e-09 0.0000000000000000e+00  1.2527787155674823e-05 1.2598963738947079e-08 0.0000000000000000e+00  8.9224745400756096e-20 2.7879780758491801e-22 0.0000000000000000e+00  1.2584625083769182e-05 -2.0299824862348401e-08 0.0000000000000000e+00  1.3157053997301630e-05 2.3205613975733148e-09 0.0000000000000000e+00  1.2977522497908702e-05 1.0443762481756949e-06 0.0000000000000000e+00  1.3134460367729274e-05 5.3650649209359663e-10 0.0000000000000000e+00  9.9720280280038707e-20 -9.1535675742533823e-22 0.0000000000000000e+00  1.3150074310361798e-05 5.2798673534256575e-09 0.0000000000000000e+00  1.3145029463207914e-05 -5.8614202597753966e-09 0.0000000000000000e+00  1.3036800412208933e-05 -4.4581940478862152e-09 0.0000000000000000e+00  1.3072078073673382e-05 2.4950671235702903e-09 0.0000000000000000e+00  1.3039647110872081e-05 -9.8407161914691481e-09 0.0000000000000000e+00  9.3573726372756596e-20 7.7794836781811308e-22 0.0000000000000000e+00  1.3079741117742462e-05 -3.8142271234185095e-09 0.0000000000000000e+00  1.3151440973877617e-05 1.0471716849042051e-08 0.0000000000000000e+00  1.2651199409113037e-05 2.9622162949775454e-08 0.0000000000000000e+00  1.3149364877113291e-05 -5.6766959265420038e-10 0.0000000000000000e+00  1.3150542853126623e-05 -6.4088139487063796e-08 0.0000000000000000e+00  1.3139553094080246e-05 1.8231407064587939e-09 0.0000000000000000e+00  1.3141235583178018e-05 -3.0836122379492955e-09 0.0000000000000000e+00  1.2683260682592583e-05 -1.9882062106114485e-07 0.0000000000000000e+00  1.3071131490565183e-05 7.9578480402770093e-09 0.0000000000000000e+00  1.3065980123664600e-05 -1.1712915739128743e-08 0.0000000000000000e+00  1.3052927834444974e-05 -8.4315647211364574e-09 0.0000000000000000e+00  1.3076394562024718e-05 -2.0939923270243989e-08 0.0000000000000000e+00  1.3138685339303508e-05 4.0917430551796953e-09 0.0000000000000000e+00  1.0051965701650020e-19 -1.1201492574090112e-21 0.0000000000000000e+00  1.2155251942500743e-05 -7.0194417357596272e-06 0.0000000000000000e+00  7.1773700806899041e-06 -1.3217268702206113e-05 0.0000000000000000e+00  3.0614990874526112e-06 -9.9321632572646110e-06 0.0000000000000000e+00  9.3979944964416472e-06 -3.3544405899643828e-06 0.0000000000000000e+00  1.3153397496069171e-05 6.8780854791538810e-10 0.0000000000000000e+00  1.3142623706381273e-05 -6.9358166624397537e-09 0.0000000000000000e+00  1.3140996821207125e-05 1.1178915504839420e-09 0.0000000000000000e+00  1.3140702438914608e-05 -2.5093040700676350e-09 0.0000000000000000e+00  1.3123715677458388e-05 -2.7302731822137676e-08 0.0000000000000000e+00  1.3063640934358237e-05 2.9095182055455808e-08 0.0000000000000000e+00  1.0294038905728571e-19 2.1864779902304340e-22 0.0000000000000000e+00  1.3054327667120815e-05 1.8209407231671235e-08 0.0000000000000000e+00  1.3141151525533615e-05 -3.8915680168490816e-09 0.0000000000000000e+00  1.3140765699334727e-05 7.5557782494619686e-11 0.0000000000000000e+00  1.3051270974582675e-05 1.1705811857247950e-08 0.0000000