<?xml version="1.0"?>
<VTKFile type="UnstructuredGrid"  version="0.1"  >
<UnstructuredGrid>
<Piece  NumberOfPoints="1079" NumberOfCells="1944">
<Points>
<DataArray  type="Float64"  NumberOfComponents="3"  format="ascii">0.08500000000000001 0.02 0  0.005 0.02 0  0.005 0.03 0  0 0.03 0  0 0 0  0.005 0 0  0.005 0.01 0  0.08500000000000001 0.01 0  0 0.015 0  0 0.0075 0  0 0.0225 0  0.04500000000000001 0.02 0  0.04500000000000001 0.01 0  0.025 0.01 0  0.025 0.02 0  0.065 0.02 0  0.065 0.01 0  0.035 0.02 0  0.035 0.01 0  0.07500000000000001 0.02 0  0.07500000000000001 0.01 0  0.015 0.02 0  0.015 0.01 0  0.05500000000000001 0.01 0  0.05500000000000001 0.02 0  0.07000000000000001 0.01 0  0.07000000000000001 0.02 0  0.05 0.01 0  0.03 0.01 0  0.03 0.02 0  0.04000000000000001 0.01 0  0.01 0.01 0  0.02 0.02 0  0.06 0.015 0  0.08500000000000001 0.015 0  0.05 0.02 0  0.07250000000000001 0.015 0  0.04000000000000001 0.02 0  0.03750000000000001 0.015 0  0.0525 0.015 0  0.02 0.01 0  0.01 0.02 0  0.0275 0.015 0  0.0125 0.015 0  0.08000000000000002 0.01 0  0.08000000000000002 0.02 0  0.0325 0.014375 0  0.04291666666666667 0.015 0  0.065 0.015 0  0.005 0.005 0  0.005 0.015 0  0.02208333333333334 0.015 0  0.07791666666666668 0.015 0  0.005 0.025 0  0.06 0.01 0  0.06 0.02 0  0.01729166666666667 0.01572916666666667 0  0.04770833333333334 0.01427083333333334 0  0.06875000000000001 0.01625 0  0.008750000000000001 0.01625 0  0.05625000000000001 0.01625 0  0 0.00375 0  0 0.01875 0  0 0.01125 0  0 0.02625 0  0.08145833333333334 0.01354166666666667 0  0.0675 0.01 0  0.0075 0.0125 0  0.0625 0.0175 0  0.0575 0.0125 0  0.0625 0.0125 0  0.08207465277777778 0.01707465277777778 0  0.06767857142857144 0.01321428571428571 0  0.0175 0.01 0  0.01875 0.01291382575757576 0  0.0475 0.02 0  0.04564168086314595 0.01679860519591141 0  0.00296875 0.0125 0  0.0025 0.03 0  0.0025 0 0  0.00296875 0.0175 0  0.01521990740740741 0.0132349537037037 0  0.0497800925925926 0.0167650462962963 0  0.0325 0.02 0  0.03474264705882353 0.01674632352941176 0  0.03750000000000001 0.02 0  0.03025735294117647 0.01674632352941176 0  0.0275 0.02 0  0.0525 0.02 0  0.0125 0.01 0  0.04020833333333334 0.01322916666666667 0  0.03750000000000001 0.01 0  0.0225 0.02 0  0.02479166666666667 0.01677083333333333 0  0.07520833333333335 0.01322916666666667 0  0.07250000000000001 0.01 0  0.07520833333333335 0.01677083333333334 0  0.07250000000000001 0.02 0  0.04020833333333334 0.01677083333333333 0  0.0225 0.01 0  0.02375 0.01262152777777778 0  0.04250000000000001 0.02 0  0.04250000000000001 0.01 0  0.07750000000000001 0.01 0  0.07750000000000001 0.02 0  0.05036151960784314 0.01294424019607843 0  0.0705560064935065 0.01284699675324675 0  0.05458333333333334 0.01291666666666666 0  0.0021875 0.024375 0  0.005 0.0275 0  0.01125 0.0175 0  0.01463848039215686 0.01705575980392157 0  0.01 0.01375 0  0.03625 0.0125 0  0.0021875 0.009375 0  0.05375000000000001 0.0175 0  0.07125000000000001 0.0175 0  0.005 0.0025 0  0.0021875 0.005625 0  0.02655220103578155 0.01234889948210923 0  0.002187499999999999 0.020625 0  0.02979166666666667 0.01302083333333333 0  0.0525 0.01 0  0.07895833333333334 0.0125 0  0.01994277885235332 0.01704213007736944 0  0.07934656179076068 0.01733823814273861 0  0.04505722114764669 0.01295786992263056 0  0.06625 0.0175 0  0.006250000000000001 0.0175 0  0.05750000000000001 0.02 0  0.05875000000000001 0.0175 0  0.005 0.0225 0  0.005 0.0075 0  0.002375 0.027375 0  0.002375 0.002625000000000001 0  0.0475 0.01 0  0.0175 0.02 0  0.0325 0.01 0  0.03375 0.0121875 0  0.04261299435028249 0.01749205508474576 0  0.08500000000000001 0.0125 0  0.08250000000000002 0.01 0  0.02121963399965531 0.01224824108143494 0  0.0675 0.02 0  0.0125 0.02 0  0.02720152243589744 0.0175 0  0.03715165441176471 0.0175 0  0.08500000000000001 0.0175 0  0.0275 0.01 0  0.0025 0.0149560546875 0  0.0075 0.01 0  0.0075 0.02 0  0.06526785714285716 0.0125 0  0.01281031447005516 0.0125 0  0.0625 0.015 0  0.06 0.0125 0  0.05750000000000001 0.01 0  0.0625 0.02 0  0.0625 0.01 0  0.08250000000000002 0.02 0  0.04260103740101855 0.01252623201412851 0  0.02240052247582197 0.01750164767101344 0  0.07293583459427785 0.01238479732953041 0  0.005234374999999999 0.012265625 0  0.03528131980640358 0.01454684009679821 0  0.0325 0.01760027210036557 0  0.02532593822924343 0.01428227733767297 0  0.08009952069819683 0.01527145502895417 0  0.01987282359856536 0.01482587683689801 0  0.04828232595121382 0.01210233572595705 0  0.01671767404878618 0.01789766427404295 0  0.05125 0.01829007549029352 0  0.05247215456215357 0.01288882122882024 0  0.07338729919678716 0.01799385040160642 0  0.03838729919678716 0.01200614959839357 0  0.07717482110586968 0.01780301674207099 0  0.04771860040890012 0.01773306039388322 0  0.03125 0.01160380747126437 0  0.06875000000000001 0.01154265873015873 0  0.07625000000000001 0.01154065860215054 0  0.01625 0.01153997817696946 0  0.068125 0.018125 0  0.05437500000000001 0.015625 0  0.066875 0.015625 0  0.07039794950204951 0.01494384850614853 0  0.05687500000000001 0.018125 0  0.006875 0.015625 0  0.008749999999999999 0.01833333333333333 0  0.010625 0.015625 0  0.05625 0.01416666666666667 0  0.05812500000000001 0.015625 0  0.0449088595298192 0.01494528408816316 0  0 0.016875 0  0 0.013125 0  0.04962452342047931 0.01478673066448802 0  0.0153754765795207 0.01521326933551198 0  0.0771774565913315 0.01322498191305479 0  0.01857756431135545 0.01840228599899994 0  0.04642243568864456 0.01159771400100006 0  0.08125000000000002 0.01155637254901961 0  0.08317650804863432 0.0118234919513657 0  0.08288217288011697 0.01511353252923977 0  0.02837253504384828 0.0117177464035174 0  0.03896057962520807 0.01831163685754031 0  0.01125 0.0114244162490927 0  0.00935910490099115 0.0119067901980177 0  0.02946078431372549 0.01495404411764706 0  0.02875 0.0185829434466942 0  0.002968749999999999 0.0225 0  0.064375 0.016875 0  0.00296875 0.0075 0  0 0.001875 0  0 0.005625 0  0 0.009375 0  0 0.020625 0  0 0.024375 0  0 0.028125 0  0.06062500000000001 0.01812500000000001 0  0.008303571428571429 0.01446428571428572 0  0.01375 0.01865917058160413 0  0.05137790313978056 0.01143372888932909 0  0.04125000000000001 0.01131513063942604 0  0.04101690263896279 0.01844430285842771 0  0.02399563533148224 0.01844349395710867 0  0.08125000000000002 0.01868815426145731 0  0.05354684380692146 0.01145463537600848 0  0.01699195823639423 0.01315138909884649 0  0.07598357371794873 0.015 0  0.04098357371794872 0.015 0  0.003744047619047619 0.00375 0  0.003344630281690141 0.02580853873239437 0  0.04625 0.0187354532243972 0  0.06388392857142858 0.01138392857142858 0  0.06375 0.01375 0  0.05875 0.01375 0  0.06375 0.02 0  0.00622802734375 0.01372802734375 0  0.003630681818181818 0.001369318181818182 0  0.003630681818181818 0.02863068181818182 0  0.06125 0.01625 0  0.06125 0.01125 0  0.05625000000000001 0.01 0  0.05875 0.01125 0  0.06125 0.01375 0  0.08337864763241221 0.0183786476324122 0  0.05213634138653413 0.01674432930673294 0  0.04375000000000001 0.01 0  0.07424178685897437 0.01529258578431373 0  0.03924178685897436 0.01529258578431372 0  0.03410139294454583 0.01843406022904556 0  0.03089860705545417 0.01843406022904556 0  0.02094160484316717 0.01850229584291991 0  0.04375000000000001 0.02 0  0.04437042160883325 0.01820701498672512 0  0.04816311705429156 0.01600061344661149 0  0.07151224904251052 0.0114127410511319 0  0.04395528506193162 0.01639387970349481 0  0.0128750358694518 0.0167500179347259 0  0.02855808448399799 0.01642839899839741 0  0.02812690373330794 0.01340955081400569 0  0.08358500641945087 0.01351822349116885 0  0.05590277777777778 0.01173611111111111 0  0.06683110430364615 0.01164926404662283 0  0.02573206694914602 0.01842532451809762 0  0.01438126661842046 0.01166701193099454 0  0.02384283211216029 0.01526549696571563 0  0.03625 0.02 0  0.004609375000000001 0.0182421875 0  0.003398437500000001 0.01943359375 0  0.001728307845744682 0.01894718251329787 0  0.004377805359085963 0.01656966216675735 0  0.04649673309852075 0.0153889662370871 0  0.03615513600614297 0.01592654988586041 0  0.03316985071935832 0.01598763605018279 0  0.03110111603888768 0.01529816275177977 0  0.01370614113484869 0.0138804542047638 0  0.04930041102671841 0.01842260568883502 0  0.07875000000000001 0.02 0  0.0745395359848485 0.01165101111925709 0  0.03860755698543604 0.01373741558556884 0  0.02605038706571737 0.01573944002207753 0  0.07559826163500957 0.01841729376139847 0  0.04437500000000001 0.01149157931286774 0  0.06874116707361365 0.01454618473032123 0  0.003761917372881356 0.0239307468220339 0  0.003984374999999999 0.01125 0  0.003768503289473684 0.01392539576480263 0  0.001796875 0.0111328125 0  0.003761917372881356 0.008930746822033899 0  0.005 0.00625 0  0.003761917372881355 0.0210692531779661 0  0.06633928571428571 0.01410714285714285 0  0.006484375 0.01125 0  0.08364120589325512 0.01657288979763549 0  0.03576267476503373 0.0184116442851204 0  0.07370875846579374 0.0137848203678562 0  0.06964285714285715 0.01758928571428571 0  0.05520833333333334 0.01833333333333333 0  0.06491071428571429 0.01839285714285714 0  0.0510098951944636 0.01559941474766356 0  0.01786087179886325 0.0115702210443714 0  0.01972197383235524 0.01160576093166696 0  0.01804697593127788 0.01433503795474974 0  0.001644074528704677 0.01642892723865279 0  0.00125 0.03 0  0.001497685185185185 0.001267746913580247 0  0.07315451164202422 0.01643443118912983 0  0.001233906745910645 0.0140625 0  0.01162635071030191 0.01362229857939618 0  0.01528023503083844 0.01845923557506155 0  0.06625 0.02 0  0.07695012019230771 0.01624387078484555 0  0.03139091092855769 0.01320776147621796 0  0.03857339107781042 0.01675295051810485 0  0.001754993120977522 0.02590789105493891 0  0.002288757784711197 0.00412546923654445 0  0.07914382119690884 0.01404430049871201 0  0.001391810103286306 0.01257390899021902 0  0.0419501201923077 0.01614675005432421 0  0.001484375 0.007018229166666667 0  0.001484375 0.02201822916666666 0  0.048
[...]
<PointData  Vectors="velocity"> 
<DataArray  type="Float64"  Name="velocity"  NumberOfComponents="3" format="ascii">1.9341062471401146e-05 1.3983827497206606e-19 0.0000000000000000e+00  3.9522811965242273e-19 -4.3174376114204876e-19 0.0000000000000000e+00  1.5757790669135220e-17 -8.6974900261778886e-04 0.0000000000000000e+00  -1.8528845721187878e-17 -8.6974900261778745e-04 0.0000000000000000e+00  -1.8363409598677291e-17 8.6974900261778800e-04 0.0000000000000000e+00  1.6998561587964796e-17 8.6974900261778702e-04 0.0000000000000000e+00  3.8149199190575942e-19 3.5567369361987582e-19 0.0000000000000000e+00  1.9861136061446932e-05 -1.5188323053271327e-19 0.0000000000000000e+00  4.2428807121132850e-20 -7.5765727002022942e-22 0.0000000000000000e+00  -4.4869502079916445e-21 3.6065909263068603e-19 0.0000000000000000e+00  2.7953031120118221e-21 -4.1323847908785980e-19 0.0000000000000000e+00  3.7741433057191626e-19 -1.2327463769213643e-21 0.0000000000000000e+00  3.2161746503869210e-19 1.9517408874336882e-21 0.0000000000000000e+00  3.7708632216726466e-19 1.0928661050714575e-21 0.0000000000000000e+00  3.1363063808746640e-19 -1.2567669230822927e-21 0.0000000000000000e+00  3.5492341855602334e-19 1.0233879302447541e-21 0.0000000000000000e+00  3.4822930451853777e-19 4.6977906506022859e-22 0.0000000000000000e+00  2.8909825474445480e-19 -7.2929160195330181e-22 0.0000000000000000e+00  4.1295447433373007e-19 -3.8369997820022266e-22 0.0000000000000000e+00  3.6015296860434010e-19 2.1885859242681848e-21 0.0000000000000000e+00  3.2281154260603881e-19 1.3358534294854388e-21 0.0000000000000000e+00  2.9880295555742297e-19 -9.4245885632921656e-22 0.0000000000000000e+00  3.0240968673558749e-19 -7.5105207664416869e-22 0.0000000000000000e+00  3.3958576832325669e-19 -3.9771399563401369e-21 0.0000000000000000e+00  3.2745638629571881e-19 1.4744308481031778e-21 0.0000000000000000e+00  3.3544455136461652e-19 5.4861579145651223e-22 0.0000000000000000e+00  3.7888554390310878e-19 -1.4284940562753206e-21 0.0000000000000000e+00  3.7664894174844322e-19 1.1361631259009729e-21 0.0000000000000000e+00  3.7295832211891126e-19 2.1703812972469229e-22 0.0000000000000000e+00  2.9580506020806227e-19 -8.9285170587776518e-22 0.0000000000000000e+00  3.2209952247570203e-19 1.1471780416398187e-21 0.0000000000000000e+00  3.5238323929625731e-19 2.0118033493476227e-21 0.0000000000000000e+00  2.9848425070873541e-19 -6.4775228018388755e-22 0.0000000000000000e+00  4.9221213893482755e-05 -7.1690187948127270e-09 0.0000000000000000e+00  4.7268378552118758e-05 1.1919254989655462e-22 0.0000000000000000e+00  3.0025034344155464e-19 2.1213327294791076e-22 0.0000000000000000e+00  4.9220287414327215e-05 1.6594663158655180e-08 0.0000000000000000e+00  3.3903230853214882e-19 -3.3530506622055058e-21 0.0000000000000000e+00  4.9179334445454781e-05 -2.3932909307447235e-08 0.0000000000000000e+00  4.9169927315080609e-05 -2.6933990941210983e-09 0.0000000000000000e+00  3.4404980788603880e-19 1.4408316545544609e-22 0.0000000000000000e+00  3.7078090471045452e-19 -6.9397495534042288e-21 0.0000000000000000e+00  4.9176270976209561e-05 -1.1366519068991028e-09 0.0000000000000000e+00  4.9073723053254696e-05 -1.6805775368327534e-07 0.0000000000000000e+00  3.0604111216622912e-19 -1.0593091705198719e-21 0.0000000000000000e+00  3.5629413581626732e-19 6.4530511053185528e-21 0.0000000000000000e+00  4.9164908717554389e-05 1.4738269506514648e-09 0.0000000000000000e+00  4.9214755517410515e-05 -4.7907218354095584e-09 0.0000000000000000e+00  4.9201430678798192e-05 -4.1431273634235146e-09 0.0000000000000000e+00  -2.4183552342675378e-20 4.3152215208987836e-19 0.0000000000000000e+00  3.7183629421737406e-05 -1.7306588569388168e-06 0.0000000000000000e+00  4.9157175795352549e-05 1.2957394269167175e-08 0.0000000000000000e+00  4.9144156441902065e-05 2.5308780400945391e-09 0.0000000000000000e+00  -3.4606193655036886e-20 -5.2171151351266312e-19 0.0000000000000000e+00  3.0502285087893175e-19 7.2701421025169116e-22 0.0000000000000000e+00  3.5447768929679190e-19 4.3548518839463614e-21 0.0000000000000000e+00  4.9179082575685491e-05 -1.3046182136198908e-08 0.0000000000000000e+00  4.9196012111908672e-05 1.3012792171803045e-08 0.0000000000000000e+00  4.9201837719240932e-05 -1.2532483670359830e-08 0.0000000000000000e+00  4.8416820552006183e-05 -1.4937449347951648e-06 0.0000000000000000e+00  4.9166895501013739e-05 -3.7025878947170907e-08 0.0000000000000000e+00  -2.0814451853550159e-19 8.6635866596753720e-20 0.0000000000000000e+00  2.0288869745144135e-20 -1.9596358253137806e-19 0.0000000000000000e+00  2.7934005382357139e-20 2.0849711233841825e-19 0.0000000000000000e+00  -2.3911079027246889e-19 3.8898406073033218e-20 0.0000000000000000e+00  4.8691785329980996e-05 -4.7112019759489752e-07 0.0000000000000000e+00  2.9990674431670680e-19 -8.9039090305591634e-22 0.0000000000000000e+00  4.8577280072341471e-05 2.8763233181703959e-06 0.0000000000000000e+00  4.9110276961826116e-05 1.6612640670040261e-09 0.0000000000000000e+00  4.9132289416983241e-05 4.0412360899986581e-09 0.0000000000000000e+00  4.9176225874382117e-05 -2.1263410328398123e-08 0.0000000000000000e+00  4.8638556824120799e-05 9.0056482827983618e-07 0.0000000000000000e+00  4.9170732944272344e-05 -9.9495808829552852e-09 0.0000000000000000e+00  3.3121386971137671e-19 -5.2145323900406839e-23 0.0000000000000000e+00  4.9132983469869293e-05 1.2863527999053377e-09 0.0000000000000000e+00  3.9443007399500686e-19 5.7521052457605163e-21 0.0000000000000000e+00  4.9214695534976829e-05 -3.7433144144065800e-08 0.0000000000000000e+00  2.3598077495051737e-05 1.9510421455805427e-05 0.0000000000000000e+00  -9.9232325326695316e-19 -8.6974900261779179e-04 0.0000000000000000e+00  -1.5123865446895989e-18 8.6974900261779244e-04 0.0000000000000000e+00  2.4296324206130322e-05 -2.3642522037825787e-05 0.0000000000000000e+00  4.9117328318918348e-05 -6.1399823227007610e-08 0.0000000000000000e+00  4.9154831171109299e-05 4.4139254292016247e-08 0.0000000000000000e+00  3.3375141286127072e-19 2.9311943106870699e-21 0.0000000000000000e+00  4.9150677152854848e-05 -1.5200645293930218e-08 0.0000000000000000e+00  3.4940125732360718e-19 2.1592962664815163e-21 0.0000000000000000e+00  4.9160176807458137e-05 -1.5578717526243871e-08 0.0000000000000000e+00  3.5260674777098664e-19 7.6100211865837883e-22 0.0000000000000000e+00  3.1862226947176496e-19 -2.6599082177803742e-23 0.0000000000000000e+00  3.7447379201418578e-19 1.9641488784545223e-21 0.0000000000000000e+00  4.9176031288214225e-05 1.5227802082735457e-08 0.0000000000000000e+00  3.4294243139903220e-19 1.0944148178911413e-21 0.0000000000000000e+00  3.6417706487870056e-19 9.6076215765255251e-22 0.0000000000000000e+00  4.9144856736418092e-05 4.0428342075570157e-09 0.0000000000000000e+00  4.9192887962830448e-05 7.8738848962536622e-09 0.0000000000000000e+00  3.5067464565000109e-19 3.0728476653634098e-22 0.0000000000000000e+00  4.9183549712248926e-05 3.3732382760584642e-08 0.0000000000000000e+00  3.6174130875642492e-19 4.1574710392590039e-21 0.0000000000000000e+00  4.9206232062956209e-05 -6.2523239853847966e-08 0.0000000000000000e+00  3.1498189146565616e-19 1.3149291747731352e-22 0.0000000000000000e+00  4.9103067689158288e-05 3.3384748820165595e-08 0.0000000000000000e+00  3.5757880269419420e-19 -4.6950998252914157e-23 0.0000000000000000e+00  3.3029183598346276e-19 3.1504912315190333e-21 0.0000000000000000e+00  3.6120605943949926e-19 5.9387551134487555e-21 0.0000000000000000e+00  3.7138883580421737e-19 -2.3149646659756812e-21 0.0000000000000000e+00  4.9186501758613099e-05 3.7202847379061769e-08 0.0000000000000000e+00  4.9198095975779806e-05 5.8147518344150139e-08 0.0000000000000000e+00  4.9183698787298147e-05 6.1432435104099487e-09 0.0000000000000000e+00  -9.5643849698245411e-06 -5.3759476001650007e-05 0.0000000000000000e+00  7.3635374975158396e-20 -7.0497161555726177e-19 0.0000000000000000e+00  4.9333472528253637e-05 -3.9315920453874427e-07 0.0000000000000000e+00  4.9246979914105475e-05 -1.2884811801557010e-07 0.0000000000000000e+00  4.8621953694450785e-05 1.6719903574876993e-07 0.0000000000000000e+00  4.9066881206246679e-05 -5.2817943028677811e-08 0.0000000000000000e+00  8.3318754657883480e-06 4.4384088071924598e-05 0.0000000000000000e+00  4.9109136818732301e-05 -5.7539169296044795e-11 0.0000000000000000e+00  4.9213650061417772e-05 2.8247676307524491e-10 0.0000000000000000e+00  1.3510601060481386e-19 3.8887000703442269e-19 0.0000000000000000e+00  -8.5353599975901288e-06 4.7293928765834785e-05 0.0000000000000000e+00  4.9102432581981214e-05 -3.3803005509425182e-08 0.0000000000000000e+00  8.2301531766153491e-06 -5.0208307880339331e-05 0.0000000000000000e+00  4.9187145896755020e-05 -7.9619107814675198e-09 0.0000000000000000e+00  3.2393179251010201e-19 -2.7197580422275463e-21 0.0000000000000000e+00  4.9092386265988159e-05 -1.5064066407550757e-07 0.0000000000000000e+00  4.9137503081222907e-05 1.7673436312550634e-09 0.0000000000000000e+00  4.9117012699720755e-05 2.2714583764187075e-07 0.0000000000000000e+00  4.9199211907053700e-05 -1.0879871725815924e-08 0.0000000000000000e+00  4.9177906155845123e-05 -5.8161362171860381e-08 0.0000000000000000e+00  4.8987068305720160e-05 -8.9111365338982450e-06 0.0000000000000000e+00  3.4679478109459729e-19 -4.9195509415095154e-21 0.0000000000000000e+00  4.9088202358217051e-05 -1.7064833558445752e-08 0.0000000000000000e+00  5.0112557354931069e-21 -4.6738387582310316e-19 0.0000000000000000e+00  4.3152799147373204e-21 4.0606589908108909e-19 0.0000000000000000e+00  -1.0477450504155798e-04 -1.2098858262518710e-04 0.0000000000000000e+00  -8.6059059361101481e-05 1.0050491696290621e-04 0.0000000000000000e+00  3.1624722905845607e-19 1.2100559865517952e-22 0.0000000000000000e+00  3.9297650583291911e-19 5.4536179646499288e-21 0.0000000000000000e+00  3.1561316425466738e-19 4.8525886834335820e-22 0.0000000000000000e+00  4.9090735670105779e-05 5.9760059401872310e-08 0.0000000000000000e+00  4.9111171285589463e-05 3.6352020219332644e-08 0.0000000000000000e+00  4.4675329105623303e-05 -1.2268399257296767e-20 0.0000000000000000e+00  3.3055477304386622e-19 -1.2434062643432468e-20 0.0000000000000000e+00  4.9111394458394725e-05 1.4518618423102875e-08 0.0000000000000000e+00  3.7906388506184192e-19 2.2896218998579137e-21 0.0000000000000000e+00  3.2690221035964844e-19 -6.8162147958224840e-22 0.0000000000000000e+00  4.9158626907538616e-05 -6.0962585997618565e-09 0.0000000000000000e+00  4.9212313498484756e-05 5.1380637497710950e-09 0.0000000000000000e+00  4.4624423882741060e-05 1.5143592314367293e-20 0.0000000000000000e+00  3.4959392875941311e-19 -4.1953482412646753e-21 0.0000000000000000e+00  1.8290582179227975e-05 -1.5012637427060832e-06 0.0000000000000000e+00  3.5681217972595048e-19 1.1917482968426632e-20 0.0000000000000000e+00  4.1569122621446977e-19 -1.6267108850614989e-20 0.0000000000000000e+00  4.9160911677196989e-05 -2.2120414843000033e-08 0.0000000000000000e+00  4.9004521429186003e-05 -4.5939010370695891e-08 0.0000000000000000e+00  4.9225641435085267e-05 3.2954207719742569e-10 0.0000000000000000e+00  4.9132881521007262e-05 3.0792965596482304e-08 0.0000000000000000e+00  3.7785388997559330e-19 3.4182264858938918e-22 0.0000000000000000e+00  3.8732173276976436e-19 1.1404626068475247e-21 0.0000000000000000e+00  3.3190766220293170e-19 -6.6165781739622711e-21 0.0000000000000000e+00  3.2220263751899995e-19 6.3851342307802243e-21 0.0000000000000000e+00  4.9123219983683000e-05 -8.0716360298853548e-09 0.0000000000000000e+00  4.9129107656470527e-05 1.9299313203441343e-08 0.0000000000000000e+00  4.9117960605245173e-05 -1.6438492410105761e-08 0.0000000000000000e+00  4.4684476396257473e-05 1.3482343200496172e-05 0.0000000000000000e+00  4.9186556561132101e-05 -1.4146955052571958e-08 0.0000000000000000e+00  4.9106438256477665e-05 1.6095002986163562e-08 0.0000000000000000e+00  4.9174551635146084e-05 1.4712930052611210e-08 0.0000000000000000e+00  4.8900400350821257e-05 5.5036025711795067e-08 0.0000000000000000e+00  4.9152153121595677e-05 5.2928833720291497e-09 0.0000000000000000e+00  4.8996740989138608e-05 1.3404446327559149e-08 0.0000000000000000e+00  4.9106356984324060e-05 1.2470032009884197e-08 0.0000000000000000e+00  4.8900637028291170e-05 3.6867495826405054e-09 0.0000000000000000e+00  4.9167492414357342e-05 -4.7170987023218991e-08 0.0000000000000000e+00  4.9020953440425591e-05 2.9123815582870473e-08 0.0000000000000000e+00  4.8975619852432069e-05 -1.8193375453770336e-08 0.0000000000000000e+00  4.9088377530211589e-05 2.0427119364866016e-08 0.0000000000000000e+00  4.9157629646315288e-05 6.1649887935807334e-08 0.0000000000000000e+00  4.8826369866500955e-05 -5.6841181128121377e-08 0.0000000000000000e+00  4.8821764810116367e-05 5.3049782913450195e-08 0.0000000000000000e+00  4.8901946236331041e-05 -7.3822988460020372e-09 0.0000000000000000e+00  4.8807460987002581e-05 -3.2967612573601272e-08 0.0000000000000000e+00  4.8925951813566518e-05 -2.9711031528856085e-08 0.0000000000000000e+00  4.9164432612645833e-05 -1.3409536892445626e-08 0.0000000000000000e+00  4.9192651275554217e-05 -9.1000347714667869e-09 0.0000000000000000e+00  4.9214235242201654e-05 1.1562659390179923e-08 0.0000000000000000e+00  4.8975296120922513e-05 -4.6466722193232004e-08 0.0000000000000000e+00  4.5053809730422996e-05 -2.6272574825243642e-06 0.0000000000000000e+00  5.0275433533097262e-05 -1.4545213849289826e-06 0.0000000000000000e+00  4.8866200975165366e-05 -4.3678738646268992e-07 0.0000000000000000e+00  4.9182178028575840e-05 -1.5013119573435815e-08 0.0000000000000000e+00  4.9208376017224072e-05 -3.3025766879289006e-08 0.0000000000000000e+00  4.9209622741322013e-05 -7.7797274769074318e-09 0.0000000000000000e+00  3.0941970273517296e-20 -1.2801481819043430e-19 0.0000000000000000e+00  4.5781980915268512e-20 1.0989763195399607e-19 0.0000000000000000e+00  4.9183318023757732e-05 2.3669299509915453e-08 0.0000000000000000e+00  4.9172083584253217e-05 -6.9730179828075891e-08 0.0000000000000000e+00  4.9217105735343509e-05 9.4633669182329760e-09 0.0000000000000000e+00  4.8834000798661634e-05 2.3049015133857687e-08 0.0000000000000000e+00  4.8931908868600873e-05 2.6061953866424132e-08 0.0000000000000000e+00  4.9200424169641499e-05 -6.6243820770734081e-07 0.0000000000000000e+00  4.8574237885482769e-05 -3.0545583791162797e-06 0.0000000000000000e+00  4.7925557953510657e-05 5.2597602411226864e-08 0.0000000000000000e+00  4.8864758062762070e-05 4.2604632179646151e-08 0.0000000000000000e+00  4.8876402988779768e-05 -4.4164277916587483e-09 0.0000000000000000e+00  4.7004353469435307e-05 3.1332489819054489e-08 0.0000000000000000e+00  4.9067418493513785e-05 6.7698021849335631e-07 0.0000000000000000e+00  4.9171376341842287e-05 -6.7645295149634626e-09 0.0000000000000000e+00  4.8687930261585269e-05 5.7921348667032588e-08 0.0000000000000000e+00  5.6239407292164363e-07 -5.7343396421717789e-05 0.0000000000000000e+00  4.9179710003362640e-05 3.0443011797363660e-08 0.0000000000000000e+00  7.0693029948607448e-07 5.0574941443613375e-05 0.0000000000000000e+00  -2.0524758624402752e-18 -2.0292301454674982e-18 0.0000000000000000e+00  -3.8350219840024383e-20 3.1043254876422102e-19 0.0000000000000000e+00  1.9006225222135449e-20 3.4147185019232363e-19 0.0000000000000000e+00  1.8357777379396149e-20 -3.4217897972479894e-19 0.0000000000000000e+00  -3.7827144879708641e-20 -3.7411461968942612e-19 0.0000000000000000e+00  -2.1287737026255603e-18 1.7479651553215823e-18 0.0000000000000000e+00  4.9016235577069102e-05 -3.4007217051518616e-08 0.0000000000000000e+00  4.7293370784820249e-05 5.6878022613904660e-08 0.0000000000000000e+00  4.7267808751017457e-05 -1.0733781335587838e-07 0.0000000000000000e+00  4.7231227032309980e-05 1.4977791188804987e-08 0.0000000000000000e+00  4.7255298508701929e-05 -7.1269755212497880e-09 0.0000000000000000e+00  4.7214530478002168e-05 5.3625784517084667e-08 0.0000000000000000e+00  4.8761873685146612e-05 6.4788976582433120e-08 0.0000000000000000e+00  4.8973768436524387e-05 7.1326388133646972e-07 0.0000000000000000e+00  4.8778155001591782e-05 -7.9605804819639996e-09 0.0000000000000000e+00  4.9121503052865022e-05 -2.3778252228423283e-08 0.0000000000000000e+00  4.9190727157536111e-05 1.3815575703256979e-08 0.0000000000000000e+00  4.9206749323970646e-05 -1.0825761998891278e-08 0.0000000000000000e+00  -8.0548675768786881e-06 7.1583830275288973e-05 0.0000000000000000e+00  -1.6542838562559897e-05 -7.3892520601892951e-05 0.0000000000000000e+00  4.7366426054008514e-05 -1.6129443216269787e-07 0.0000000000000000e+00  4.8678283983724974e-05 6.1219042662827919e-08 0.0000000000000000e+00  4.9212182640102385e-05 -9.8832247352823339e-09 0.0000000000000000e+00  4.9201664149513081e-05 -1.1209408143371727e-08 0.0000000000000000e+00  3.4771610372230899e-19 3.9850439724971860e-21 0.0000000000000000e+00  4.3577064155902629e-05 3.3256879441320813e-06 0.0000000000000000e+00  1.9805154661422847e-04 2.2861065005779342e-04 0.0000000000000000e+00  1.9858373239121720e-04 -2.4237468589307729e-04 0.0000000000000000e+00  4.9230393283631581e-05 -7.8714980416069496e-09 0.0000000000000000e+00  4.6874453881400026e-05 4.6801455277272251e-08 0.0000000000000000e+00  3.4089283545584175e-19 9.1882937752929868e-22 0.0000000000000000e+00  4.7089141060092774e-05 -7.6755158484814176e-08 0.0000000000000000e+00  4.9230905383155730e-05 8.6738249989431553e-09 0.0000000000000000e+00  4.8559602806712099e-05 3.9072959585642050e-06 0.0000000000000000e+00  4.9146339432773196e-05 1.9870714058971624e-09 0.0000000000000000e+00  3.5926340212917209e-19 -3.3700258971731525e-21 0.0000000000000000e+00  4.9204752018955746e-05 1.9752417992046372e-08 0.0000000000000000e+00  4.9185905643974755e-05 -2.1926551424208715e-08 0.0000000000000000e+00  4.8780883141483606e-05 -1.6848272717454671e-08 0.0000000000000000e+00  4.8912901084905851e-05 9.3685304291161523e-09 0.0000000000000000e+00  4.8790552479817882e-05 -3.6236028561399815e-08 0.0000000000000000e+00  3.4596284384033441e-19 2.9454180918815290e-21 0.0000000000000000e+00  4.8941398777787407e-05 -1.4416066496325870e-08 0.0000000000000000e+00  4.9209862866961776e-05 3.9201881322090400e-08 0.0000000000000000e+00  4.7338258271194924e-05 1.0994425233097399e-07 0.0000000000000000e+00  4.9202128213811720e-05 -2.1101983813223010e-09 0.0000000000000000e+00  4.9197772416963951e-05 -2.2624288231818265e-07 0.0000000000000000e+00  4.9165369511187715e-05 6.9048281843497745e-09 0.0000000000000000e+00  4.9171728594942761e-05 -1.1482240991599282e-08 0.0000000000000000e+00  4.7456297127134102e-05 -7.4564240159637141e-07 0.0000000000000000e+00  4.8909558183373521e-05 2.9577274036273960e-08 0.0000000000000000e+00  4.8889956882177023e-05 -4.4069197823506590e-08 0.0000000000000000e+00  4.8841249674230979e-05 -3.1231291456156994e-08 0.0000000000000000e+00  4.8936986883019329e-05 -7.3914556255535865e-08 0.0000000000000000e+00  4.9162128743104015e-05 1.5710987218355035e-08 0.0000000000000000e+00  3.6735175384177801e-19 -4.1104145648494082e-21 0.0000000000000000e+00  4.5354298329373473e-05 -2.6054144965014763e-05 0.0000000000000000e+00  2.6763239434762660e-05 -4.9105172825975148e-05 0.0000000000000000e+00  1.1430755040552261e-05 -3.6862288002433392e-05 0.0000000000000000e+00  3.5116784063912022e-05 -1.2356856666271625e-05 0.0000000000000000e+00  4.9217206783809266e-05 2.5961585280452842e-09 0.0000000000000000e+00  4.9176904629496439e-05 -2.5957562860354386e-08 0.0000000000000000e+00  4.9170802871131332e-05 4.1974525487576531e-09 0.0000000000000000e+00  4.9169706401066151e-05 -9.3410463841313396e-09 0.0000000000000000e+00  4.9110634696572279e-05 -9.0996541502580389e-08 0.0000000000000000e+00  4.8880934849293862e-05 1.0873411928750243e-07 0.0000000000000000e+00  3.8473970410160538e-19 6.0316634213253351e-22 0.0000000000000000e+00  4.8846797254581464e-05 6.7947378857690198e-08 0.0000000000000000e+00  4.9171395952277260e-05 -1.4549596123344423e-08 0.0000000000000000e+00  4.9169891471405426e-05 4.6429848971488365e-10 0.0000000000000000e+00  4.8835102165814229e-05 4.3692095498452465e-08 0.000000000