<?xml version="1.0"?>
<VTKFile type="UnstructuredGrid"  version="0.1"  >
<UnstructuredGrid>
<Piece  NumberOfPoints="1079" NumberOfCells="1944">
<Points>
<DataArray  type="Float64"  NumberOfComponents="3"  format="ascii">0.08500000000000001 0.02 0  0.005 0.02 0  0.005 0.03 0  0 0.03 0  0 0 0  0.005 0 0  0.005 0.01 0  0.08500000000000001 0.01 0  0 0.015 0  0 0.0075 0  0 0.0225 0  0.04500000000000001 0.02 0  0.04500000000000001 0.01 0  0.025 0.01 0  0.025 0.02 0  0.065 0.02 0  0.065 0.01 0  0.035 0.02 0  0.035 0.01 0  0.07500000000000001 0.02 0  0.07500000000000001 0.01 0  0.015 0.02 0  0.015 0.01 0  0.05500000000000001 0.01 0  0.05500000000000001 0.02 0  0.07000000000000001 0.01 0  0.07000000000000001 0.02 0  0.05 0.01 0  0.03 0.01 0  0.03 0.02 0  0.04000000000000001 0.01 0  0.01 0.01 0  0.02 0.02 0  0.06 0.015 0  0.08500000000000001 0.015 0  0.05 0.02 0  0.07250000000000001 0.015 0  0.04000000000000001 0.02 0  0.03750000000000001 0.015 0  0.0525 0.015 0  0.02 0.01 0  0.01 0.02 0  0.0275 0.015 0  0.0125 0.015 0  0.08000000000000002 0.01 0  0.08000000000000002 0.02 0  0.0325 0.014375 0  0.04291666666666667 0.015 0  0.065 0.015 0  0.005 0.005 0  0.005 0.015 0  0.02208333333333334 0.015 0  0.07791666666666668 0.015 0  0.005 0.025 0  0.06 0.01 0  0.06 0.02 0  0.01729166666666667 0.01572916666666667 0  0.04770833333333334 0.01427083333333334 0  0.06875000000000001 0.01625 0  0.008750000000000001 0.01625 0  0.05625000000000001 0.01625 0  0 0.00375 0  0 0.01875 0  0 0.01125 0  0 0.02625 0  0.08145833333333334 0.01354166666666667 0  0.0675 0.01 0  0.0075 0.0125 0  0.0625 0.0175 0  0.0575 0.0125 0  0.0625 0.0125 0  0.08207465277777778 0.01707465277777778 0  0.06767857142857144 0.01321428571428571 0  0.0175 0.01 0  0.01875 0.01291382575757576 0  0.0475 0.02 0  0.04564168086314595 0.01679860519591141 0  0.00296875 0.0125 0  0.0025 0.03 0  0.0025 0 0  0.00296875 0.0175 0  0.01521990740740741 0.0132349537037037 0  0.0497800925925926 0.0167650462962963 0  0.0325 0.02 0  0.03474264705882353 0.01674632352941176 0  0.03750000000000001 0.02 0  0.03025735294117647 0.01674632352941176 0  0.0275 0.02 0  0.0525 0.02 0  0.0125 0.01 0  0.04020833333333334 0.01322916666666667 0  0.03750000000000001 0.01 0  0.0225 0.02 0  0.02479166666666667 0.01677083333333333 0  0.07520833333333335 0.01322916666666667 0  0.07250000000000001 0.01 0  0.07520833333333335 0.01677083333333334 0  0.07250000000000001 0.02 0  0.04020833333333334 0.01677083333333333 0  0.0225 0.01 0  0.02375 0.01262152777777778 0  0.04250000000000001 0.02 0  0.04250000000000001 0.01 0  0.07750000000000001 0.01 0  0.07750000000000001 0.02 0  0.05036151960784314 0.01294424019607843 0  0.0705560064935065 0.01284699675324675 0  0.05458333333333334 0.01291666666666666 0  0.0021875 0.024375 0  0.005 0.0275 0  0.01125 0.0175 0  0.01463848039215686 0.01705575980392157 0  0.01 0.01375 0  0.03625 0.0125 0  0.0021875 0.009375 0  0.05375000000000001 0.0175 0  0.07125000000000001 0.0175 0  0.005 0.0025 0  0.0021875 0.005625 0  0.02655220103578155 0.01234889948210923 0  0.002187499999999999 0.020625 0  0.02979166666666667 0.01302083333333333 0  0.0525 0.01 0  0.07895833333333334 0.0125 0  0.01994277885235332 0.01704213007736944 0  0.07934656179076068 0.01733823814273861 0  0.04505722114764669 0.01295786992263056 0  0.06625 0.0175 0  0.006250000000000001 0.0175 0  0.05750000000000001 0.02 0  0.05875000000000001 0.0175 0  0.005 0.0225 0  0.005 0.0075 0  0.002375 0.027375 0  0.002375 0.002625000000000001 0  0.0475 0.01 0  0.0175 0.02 0  0.0325 0.01 0  0.03375 0.0121875 0  0.04261299435028249 0.01749205508474576 0  0.08500000000000001 0.0125 0  0.08250000000000002 0.01 0  0.02121963399965531 0.01224824108143494 0  0.0675 0.02 0  0.0125 0.02 0  0.02720152243589744 0.0175 0  0.03715165441176471 0.0175 0  0.08500000000000001 0.0175 0  0.0275 0.01 0  0.0025 0.0149560546875 0  0.0075 0.01 0  0.0075 0.02 0  0.06526785714285716 0.0125 0  0.01281031447005516 0.0125 0  0.0625 0.015 0  0.06 0.0125 0  0.05750000000000001 0.01 0  0.0625 0.02 0  0.0625 0.01 0  0.08250000000000002 0.02 0  0.04260103740101855 0.01252623201412851 0  0.02240052247582197 0.01750164767101344 0  0.07293583459427785 0.01238479732953041 0  0.005234374999999999 0.012265625 0  0.03528131980640358 0.01454684009679821 0  0.0325 0.01760027210036557 0  0.02532593822924343 0.01428227733767297 0  0.08009952069819683 0.01527145502895417 0  0.01987282359856536 0.01482587683689801 0  0.04828232595121382 0.01210233572595705 0  0.01671767404878618 0.01789766427404295 0  0.05125 0.01829007549029352 0  0.05247215456215357 0.01288882122882024 0  0.07338729919678716 0.01799385040160642 0  0.03838729919678716 0.01200614959839357 0  0.07717482110586968 0.01780301674207099 0  0.04771860040890012 0.01773306039388322 0  0.03125 0.01160380747126437 0  0.06875000000000001 0.01154265873015873 0  0.07625000000000001 0.01154065860215054 0  0.01625 0.01153997817696946 0  0.068125 0.018125 0  0.05437500000000001 0.015625 0  0.066875 0.015625 0  0.07039794950204951 0.01494384850614853 0  0.05687500000000001 0.018125 0  0.006875 0.015625 0  0.008749999999999999 0.01833333333333333 0  0.010625 0.015625 0  0.05625 0.01416666666666667 0  0.05812500000000001 0.015625 0  0.0449088595298192 0.01494528408816316 0  0 0.016875 0  0 0.013125 0  0.04962452342047931 0.01478673066448802 0  0.0153754765795207 0.01521326933551198 0  0.0771774565913315 0.01322498191305479 0  0.01857756431135545 0.01840228599899994 0  0.04642243568864456 0.01159771400100006 0  0.08125000000000002 0.01155637254901961 0  0.08317650804863432 0.0118234919513657 0  0.08288217288011697 0.01511353252923977 0  0.02837253504384828 0.0117177464035174 0  0.03896057962520807 0.01831163685754031 0  0.01125 0.0114244162490927 0  0.00935910490099115 0.0119067901980177 0  0.02946078431372549 0.01495404411764706 0  0.02875 0.0185829434466942 0  0.002968749999999999 0.0225 0  0.064375 0.016875 0  0.00296875 0.0075 0  0 0.001875 0  0 0.005625 0  0 0.009375 0  0 0.020625 0  0 0.024375 0  0 0.028125 0  0.06062500000000001 0.01812500000000001 0  0.008303571428571429 0.01446428571428572 0  0.01375 0.01865917058160413 0  0.05137790313978056 0.01143372888932909 0  0.04125000000000001 0.01131513063942604 0  0.04101690263896279 0.01844430285842771 0  0.02399563533148224 0.01844349395710867 0  0.08125000000000002 0.01868815426145731 0  0.05354684380692146 0.01145463537600848 0  0.01699195823639423 0.01315138909884649 0  0.07598357371794873 0.015 0  0.04098357371794872 0.015 0  0.003744047619047619 0.00375 0  0.003344630281690141 0.02580853873239437 0  0.04625 0.0187354532243972 0  0.06388392857142858 0.01138392857142858 0  0.06375 0.01375 0  0.05875 0.01375 0  0.06375 0.02 0  0.00622802734375 0.01372802734375 0  0.003630681818181818 0.001369318181818182 0  0.003630681818181818 0.02863068181818182 0  0.06125 0.01625 0  0.06125 0.01125 0  0.05625000000000001 0.01 0  0.05875 0.01125 0  0.06125 0.01375 0  0.08337864763241221 0.0183786476324122 0  0.05213634138653413 0.01674432930673294 0  0.04375000000000001 0.01 0  0.07424178685897437 0.01529258578431373 0  0.03924178685897436 0.01529258578431372 0  0.03410139294454583 0.01843406022904556 0  0.03089860705545417 0.01843406022904556 0  0.02094160484316717 0.01850229584291991 0  0.04375000000000001 0.02 0  0.04437042160883325 0.01820701498672512 0  0.04816311705429156 0.01600061344661149 0  0.07151224904251052 0.0114127410511319 0  0.04395528506193162 0.01639387970349481 0  0.0128750358694518 0.0167500179347259 0  0.02855808448399799 0.01642839899839741 0  0.02812690373330794 0.01340955081400569 0  0.08358500641945087 0.01351822349116885 0  0.05590277777777778 0.01173611111111111 0  0.06683110430364615 0.01164926404662283 0  0.02573206694914602 0.01842532451809762 0  0.01438126661842046 0.01166701193099454 0  0.02384283211216029 0.01526549696571563 0  0.03625 0.02 0  0.004609375000000001 0.0182421875 0  0.003398437500000001 0.01943359375 0  0.001728307845744682 0.01894718251329787 0  0.004377805359085963 0.01656966216675735 0  0.04649673309852075 0.0153889662370871 0  0.03615513600614297 0.01592654988586041 0  0.03316985071935832 0.01598763605018279 0  0.03110111603888768 0.01529816275177977 0  0.01370614113484869 0.0138804542047638 0  0.04930041102671841 0.01842260568883502 0  0.07875000000000001 0.02 0  0.0745395359848485 0.01165101111925709 0  0.03860755698543604 0.01373741558556884 0  0.02605038706571737 0.01573944002207753 0  0.07559826163500957 0.01841729376139847 0  0.04437500000000001 0.01149157931286774 0  0.06874116707361365 0.01454618473032123 0  0.003761917372881356 0.0239307468220339 0  0.003984374999999999 0.01125 0  0.003768503289473684 0.01392539576480263 0  0.001796875 0.0111328125 0  0.003761917372881356 0.008930746822033899 0  0.005 0.00625 0  0.003761917372881355 0.0210692531779661 0  0.06633928571428571 0.01410714285714285 0  0.006484375 0.01125 0  0.08364120589325512 0.01657288979763549 0  0.03576267476503373 0.0184116442851204 0  0.07370875846579374 0.0137848203678562 0  0.06964285714285715 0.01758928571428571 0  0.05520833333333334 0.01833333333333333 0  0.06491071428571429 0.01839285714285714 0  0.0510098951944636 0.01559941474766356 0  0.01786087179886325 0.0115702210443714 0  0.01972197383235524 0.01160576093166696 0  0.01804697593127788 0.01433503795474974 0  0.001644074528704677 0.01642892723865279 0  0.00125 0.03 0  0.001497685185185185 0.001267746913580247 0  0.07315451164202422 0.01643443118912983 0  0.001233906745910645 0.0140625 0  0.01162635071030191 0.01362229857939618 0  0.01528023503083844 0.01845923557506155 0  0.06625 0.02 0  0.07695012019230771 0.01624387078484555 0  0.03139091092855769 0.01320776147621796 0  0.03857339107781042 0.01675295051810485 0  0.001754993120977522 0.02590789105493891 0  0.002288757784711197 0.00412546923654445 0  0.07914382119690884 0.01404430049871201 0  0.001391810103286306 0.01257390899021902 0  0.0419501201923077 0.01614675005432421 0  0.001484375 0.007018229166666667 0  0.001484375 0.02201822916666666 0  0.048
[...]
<PointData  Vectors="velocity"> 
<DataArray  type="Float64"  Name="velocity"  NumberOfComponents="3" format="ascii">2.5612013318409430e-07 1.9501394947185028e-21 0.0000000000000000e+00  5.3251977172371274e-21 -6.1083150285955282e-21 0.0000000000000000e+00  2.4039936552322434e-19 -1.2618568830660291e-05 0.0000000000000000e+00  -2.6883369907973486e-19 -1.2618568830660274e-05 0.0000000000000000e+00  -2.5590900200859400e-19 1.2618568830660279e-05 0.0000000000000000e+00  2.5009288832658057e-19 1.2618568830660267e-05 0.0000000000000000e+00  5.0490340827426577e-21 4.8131882554932701e-21 0.0000000000000000e+00  2.6304371226237520e-07 -1.9256029090290539e-21 0.0000000000000000e+00  5.7455676309867398e-22 -4.0842462212027994e-23 0.0000000000000000e+00  -6.7592534212161224e-23 4.6503663537966928e-21 0.0000000000000000e+00  2.1635074855428431e-23 -5.3872066811029751e-21 0.0000000000000000e+00  4.9461366029835204e-21 -1.6715782586276166e-23 0.0000000000000000e+00  4.1590064347143613e-21 2.6041868366271127e-23 0.0000000000000000e+00  4.9959593374695206e-21 1.5485098150274923e-23 0.0000000000000000e+00  3.9457000665816547e-21 -1.7250522858575895e-23 0.0000000000000000e+00  4.7046276600657715e-21 1.6940109198473558e-23 0.0000000000000000e+00  4.7675211064771744e-21 6.4925429759088778e-24 0.0000000000000000e+00  3.8513016507341641e-21 -8.4644048374106639e-24 0.0000000000000000e+00  5.4584333572157258e-21 -7.1777543204048618e-24 0.0000000000000000e+00  4.6328156200189430e-21 2.9666043935304403e-23 0.0000000000000000e+00  4.3425087884747890e-21 1.7763353355759083e-23 0.0000000000000000e+00  4.0598227657258555e-21 -1.1724097551691576e-23 0.0000000000000000e+00  3.9715920885434047e-21 -7.6128275837502913e-24 0.0000000000000000e+00  4.7503287904171779e-21 -5.3173909745971689e-23 0.0000000000000000e+00  4.3393988166283422e-21 2.0022649782473661e-23 0.0000000000000000e+00  4.2619739171001774e-21 7.0135541521429110e-24 0.0000000000000000e+00  5.1651762486791253e-21 -1.8527431330711257e-23 0.0000000000000000e+00  4.7633612727169947e-21 1.4875155990060568e-23 0.0000000000000000e+00  4.9159136382642809e-21 3.0097084395416316e-24 0.0000000000000000e+00  3.8470903870794180e-21 -9.4305334245348451e-24 0.0000000000000000e+00  4.4566569870180933e-21 1.5375690022340219e-23 0.0000000000000000e+00  4.5530286327340936e-21 2.6352922163094447e-23 0.0000000000000000e+00  4.1086001771663728e-21 -9.2375387179001829e-24 0.0000000000000000e+00  6.5353625808782386e-07 -9.5570086249798590e-11 0.0000000000000000e+00  6.2767727390572383e-07 1.4594954345463255e-24 0.0000000000000000e+00  4.1759591088708934e-21 2.3410075065714558e-24 0.0000000000000000e+00  6.5352423998485984e-07 2.2031995067021201e-10 0.0000000000000000e+00  4.8791656244347076e-21 -4.4337812623358158e-23 0.0000000000000000e+00  6.5298020640492232e-07 -3.1787251514480628e-10 0.0000000000000000e+00  6.5285552580411204e-07 -3.5544494876157360e-11 0.0000000000000000e+00  4.2757840192107752e-21 1.8766243215960803e-24 0.0000000000000000e+00  4.7400967931734238e-21 -9.1490838838825282e-23 0.0000000000000000e+00  6.5293974048094042e-07 -1.7219803083874019e-11 0.0000000000000000e+00  6.5157794702881509e-07 -2.5677287755170129e-09 0.0000000000000000e+00  4.0249132753521932e-21 -1.7633516625279731e-23 0.0000000000000000e+00  4.4121310951215832e-21 8.3172982949172373e-23 0.0000000000000000e+00  6.5278857281052452e-07 1.9093987253072961e-11 0.0000000000000000e+00  6.5345033182009772e-07 -6.3725313239296784e-11 0.0000000000000000e+00  6.5327417717055621e-07 -5.4971128574335349e-11 0.0000000000000000e+00  -3.4521274563232602e-22 5.8717267004849687e-21 0.0000000000000000e+00  4.9365559512699522e-07 -2.6096597614913335e-08 0.0000000000000000e+00  6.5268615664638565e-07 1.5810619041281503e-10 0.0000000000000000e+00  6.5251619421414674e-07 3.3590899107797601e-11 0.0000000000000000e+00  -5.0542020881144183e-22 -7.2101204549331388e-21 0.0000000000000000e+00  4.2005265481208820e-21 1.1517369216226878e-23 0.0000000000000000e+00  4.7328121062359898e-21 5.8363389873930891e-23 0.0000000000000000e+00  6.5299597581604144e-07 -2.3877521377038352e-10 0.0000000000000000e+00  6.5320213503887962e-07 1.7273727861079092e-10 0.0000000000000000e+00  6.5327904692156091e-07 -1.6669331151407370e-10 0.0000000000000000e+00  6.4327976765319023e-07 -2.0885852982349149e-08 0.0000000000000000e+00  6.5281447070067221e-07 -4.9106859037311477e-10 0.0000000000000000e+00  -2.9611089141428737e-21 8.6670964931696149e-22 0.0000000000000000e+00  2.6693527939551856e-22 -2.6326883167182799e-21 0.0000000000000000e+00  3.6447397486645107e-22 2.9427898711439383e-21 0.0000000000000000e+00  -3.6646016750789566e-21 9.2061944520276236e-22 0.0000000000000000e+00  6.4651891832052996e-07 -6.2448885562735560e-09 0.0000000000000000e+00  3.9335396437524274e-21 -1.1240116254438620e-23 0.0000000000000000e+00  6.4373909730212620e-07 3.6960436062536417e-08 0.0000000000000000e+00  6.5206200161457988e-07 1.7926713486588542e-11 0.0000000000000000e+00  6.5235368965743365e-07 5.5301614534076071e-11 0.0000000000000000e+00  6.5293825513330043e-07 -2.7999901615030101e-10 0.0000000000000000e+00  6.4581439675776832e-07 1.1941269020995512e-08 0.0000000000000000e+00  6.5286646606940211e-07 -1.3232837627013572e-10 0.0000000000000000e+00  4.3962519226804549e-21 -7.1956260226633041e-25 0.0000000000000000e+00  6.5233876299295013e-07 -1.4542000351318646e-11 0.0000000000000000e+00  5.5055864495136373e-21 7.9070047928144004e-23 0.0000000000000000e+00  6.5344932497599271e-07 -4.9792142916087111e-10 0.0000000000000000e+00  3.1222116371170240e-07 2.5427495058584157e-07 0.0000000000000000e+00  -1.4831744027969800e-20 -1.2618568830660335e-05 0.0000000000000000e+00  -2.3202047517771069e-20 1.2618568830660343e-05 0.0000000000000000e+00  3.2354181427237288e-07 -3.1859349386759400e-07 0.0000000000000000e+00  6.5207976419668480e-07 -9.2814530378602158e-10 0.0000000000000000e+00  6.5265617657641754e-07 5.8665882467568911e-10 0.0000000000000000e+00  4.2552415523464403e-21 3.9019521428254627e-23 0.0000000000000000e+00  6.5260003238834832e-07 -2.0128844270304456e-10 0.0000000000000000e+00  4.5942484578769577e-21 2.8899179510193849e-23 0.0000000000000000e+00  6.5272596176964734e-07 -2.0751033255505393e-10 0.0000000000000000e+00  5.1479108693995014e-21 9.1820081544251753e-24 0.0000000000000000e+00  4.4512638728040138e-21 -1.1814083499797330e-24 0.0000000000000000e+00  4.7319544446736475e-21 2.6855022114833912e-23 0.0000000000000000e+00  6.5293671626209679e-07 2.0200267914949204e-10 0.0000000000000000e+00  4.4446955961776098e-21 1.5052231566552996e-23 0.0000000000000000e+00  4.7343523971167713e-21 1.2884263037104518e-23 0.0000000000000000e+00  6.5252552650134149e-07 4.9561844305229652e-11 0.0000000000000000e+00  6.5316083455246619e-07 1.0400354226547589e-10 0.0000000000000000e+00  4.5665880960571286e-21 3.6100009926971649e-24 0.0000000000000000e+00  6.5303571435075475e-07 4.4809868972172888e-10 0.0000000000000000e+00  5.0010150593652189e-21 5.2095842050324904e-23 0.0000000000000000e+00  6.5333781619570634e-07 -8.2928381163802799e-10 0.0000000000000000e+00  4.0574957392999597e-21 1.8344436031991284e-24 0.0000000000000000e+00  6.5196044455726937e-07 4.3922802516668473e-10 0.0000000000000000e+00  4.7655263226707866e-21 -5.5020701077633773e-25 0.0000000000000000e+00  4.5083628236593027e-21 4.2475580140439245e-23 0.0000000000000000e+00  4.9952224642271536e-21 7.8356058880435654e-23 0.0000000000000000e+00  5.0359242776551814e-21 -3.0969306029804450e-23 0.0000000000000000e+00  6.5307662638585332e-07 4.9477244411818501e-10 0.0000000000000000e+00  6.5322922182361456e-07 7.7229206975092004e-10 0.0000000000000000e+00  6.5303874742424057e-07 8.0504776063964672e-11 0.0000000000000000e+00  -1.3802019229859722e-07 -7.1821763810946958e-07 0.0000000000000000e+00  8.9903560306016214e-22 -9.7119584745784335e-21 0.0000000000000000e+00  6.5541194503063615e-07 -5.5785682324166510e-09 0.0000000000000000e+00  6.5398198041444599e-07 -1.8372974261737600e-09 0.0000000000000000e+00  6.4525569023147090e-07 1.5295340309436728e-09 0.0000000000000000e+00  6.5148156090762773e-07 -6.9941058149932407e-10 0.0000000000000000e+00  1.0943877867253534e-07 5.8264215494183485e-07 0.0000000000000000e+00  6.5205065261663003e-07 -1.1874443300589035e-12 0.0000000000000000e+00  6.5343650502723680e-07 -7.6708326859863147e-13 0.0000000000000000e+00  1.9211534825779396e-21 5.5246012643475161e-21 0.0000000000000000e+00  -1.2155659516899884e-07 6.1923409989701960e-07 0.0000000000000000e+00  6.5195992523798382e-07 -4.4672515374097475e-10 0.0000000000000000e+00  1.0910774841391923e-07 -6.7307863438676484e-07 0.0000000000000000e+00  6.5308360395747912e-07 -1.0892641495205361e-10 0.0000000000000000e+00  4.2879033697046259e-21 -3.6157660188844185e-23 0.0000000000000000e+00  6.5181468682945242e-07 -1.9898011440630975e-09 0.0000000000000000e+00  6.5244189414007778e-07 2.4450094040142186e-12 0.0000000000000000e+00  6.5215386471131139e-07 3.0099174751266590e-09 0.0000000000000000e+00  6.5324449201514324e-07 -1.4545314777663782e-10 0.0000000000000000e+00  6.5296269059533394e-07 -7.7124155345279456e-10 0.0000000000000000e+00  6.5201934310163319e-07 -1.2043240581443466e-07 0.0000000000000000e+00  4.8822247332554859e-21 -6.5408896645236913e-23 0.0000000000000000e+00  6.5177546810419490e-07 -2.3309238309069695e-10 0.0000000000000000e+00  6.0042504531105406e-23 -6.0907779460868605e-21 0.0000000000000000e+00  4.7187525406635473e-23 5.3633004030154882e-21 0.0000000000000000e+00  -1.5096828600727936e-06 -1.6451544773274702e-06 0.0000000000000000e+00  -1.2263449970705797e-06 1.3497188257851362e-06 0.0000000000000000e+00  4.4934616336430844e-21 1.3545402834535022e-24 0.0000000000000000e+00  5.1626804817464532e-21 7.4489398708997655e-23 0.0000000000000000e+00  4.3355063402483772e-21 7.5766348830458938e-24 0.0000000000000000e+00  6.5180608654075738e-07 7.9465787627860675e-10 0.0000000000000000e+00  6.5207879934416975e-07 4.7905960678500054e-10 0.0000000000000000e+00  5.9318995505205830e-07 -1.5899662084477431e-22 0.0000000000000000e+00  4.4316274549669564e-21 -1.4322087379754945e-22 0.0000000000000000e+00  6.5206534796409528e-07 1.8258363995637833e-10 0.0000000000000000e+00  4.6050999973886368e-21 3.2032200476424013e-23 0.0000000000000000e+00  4.6419285571550587e-21 -9.4370062442162547e-24 0.0000000000000000e+00  6.5270843953633727e-07 -8.3407098037236974e-11 0.0000000000000000e+00  6.5341687020279140e-07 7.0109232034209476e-11 0.0000000000000000e+00  5.9251241292360215e-07 2.1577404310625279e-22 0.0000000000000000e+00  4.5702490170513411e-21 -5.7327580375609573e-23 0.0000000000000000e+00  2.4282294136064087e-07 -2.4294112875370231e-08 0.0000000000000000e+00  4.7532949310851051e-21 1.5367731270348998e-22 0.0000000000000000e+00  5.6924957794758097e-21 -2.2202072202071105e-22 0.0000000000000000e+00  6.5273638481694419e-07 -2.9228870965080475e-10 0.0000000000000000e+00  6.5043969578600745e-07 -8.0539425720025098e-10 0.0000000000000000e+00  6.5359555566308063e-07 4.4924016343855336e-12 0.0000000000000000e+00  6.5236209631241977e-07 4.1181447845662005e-10 0.0000000000000000e+00  5.0314756781227940e-21 4.3581562109090890e-24 0.0000000000000000e+00  5.3412620582004674e-21 1.3118543648175436e-23 0.0000000000000000e+00  4.3954180072093671e-21 -8.5045363976508736e-23 0.0000000000000000e+00  4.3055672372892808e-21 9.5283071181021243e-23 0.0000000000000000e+00  6.5224154251209770e-07 -1.0483246074798929e-10 0.0000000000000000e+00  6.5232303548267908e-07 2.4627298767438274e-10 0.0000000000000000e+00  6.5216918023107057e-07 -2.1528827821873361e-10 0.0000000000000000e+00  5.9115938243117978e-07 1.7600002641165471e-07 0.0000000000000000e+00  6.5307617239070062e-07 -1.8774524968502258e-10 0.0000000000000000e+00  6.5200958579077588e-07 2.1086519253976527e-10 0.0000000000000000e+00  6.5291566596643177e-07 1.9114486597846862e-10 0.0000000000000000e+00  6.4928491550189126e-07 7.2995270314023918e-10 0.0000000000000000e+00  6.5261873146299687e-07 4.1599600279407031e-11 0.0000000000000000e+00  6.5055372439558368e-07 1.7946823336778873e-10 0.0000000000000000e+00  6.5207775294250738e-07 1.1350362706284959e-10 0.0000000000000000e+00  6.4927749421112536e-07 4.7515555083986808e-11 0.0000000000000000e+00  6.5282270543678822e-07 -6.2658571962001625e-10 0.0000000000000000e+00  6.5087483736353699e-07 3.8160592587793821e-10 0.0000000000000000e+00  6.5027342789583984e-07 -2.4035904731199641e-10 0.0000000000000000e+00  6.5176990504089331e-07 2.6672503531553671e-10 0.0000000000000000e+00  6.5269071682653391e-07 8.1360928066343219e-10 0.0000000000000000e+00  6.4829160368528114e-07 -7.5475822344001464e-10 0.0000000000000000e+00  6.4823588490700387e-07 7.0621475150535823e-10 0.0000000000000000e+00  6.4929923985339783e-07 -1.0090570214186013e-10 0.0000000000000000e+00  6.4795571045901323e-07 -4.7483562614937980e-10 0.0000000000000000e+00  6.4961352575693970e-07 -3.9738035982061986e-10 0.0000000000000000e+00  6.5278237099270368e-07 -1.7768634242374998e-10 0.0000000000000000e+00  6.5315708617296458e-07 -1.2061827968303326e-10 0.0000000000000000e+00  6.5344370485833776e-07 1.5325637259007004e-10 0.0000000000000000e+00  6.5027636463563117e-07 -6.1588950863026048e-10 0.0000000000000000e+00  5.9850822406574897e-07 -3.6887322469616680e-08 0.0000000000000000e+00  6.6859921158965398e-07 -1.9895604165221867e-08 0.0000000000000000e+00  6.4893692346853728e-07 -6.4171798731585945e-09 0.0000000000000000e+00  6.5301787906287397e-07 -1.9915672826947927e-10 0.0000000000000000e+00  6.5336556289103247e-07 -4.3852208866959559e-10 0.0000000000000000e+00  6.5338249796637163e-07 -1.0352891593668441e-10 0.0000000000000000e+00  4.0052029536032653e-22 -1.6589598032676246e-21 0.0000000000000000e+00  5.8660171332766938e-22 1.4046534887528529e-21 0.0000000000000000e+00  6.5303370668494696e-07 3.1441368148836459e-10 0.0000000000000000e+00  6.5289300876882658e-07 -1.0524137396817737e-09 0.0000000000000000e+00  6.5348336022907970e-07 1.2722992407713533e-10 0.0000000000000000e+00  6.4843748956104334e-07 2.8854523330710997e-10 0.0000000000000000e+00  6.4969314918429937e-07 3.5006252312071142e-10 0.0000000000000000e+00  6.5326152938649611e-07 -8.7802743755689738e-09 0.0000000000000000e+00  6.4497851777691510e-07 -4.0536305685121873e-08 0.0000000000000000e+00  6.3636516926818611e-07 6.9660890932105226e-10 0.0000000000000000e+00  6.4879692733127661e-07 5.6614326741605233e-10 0.0000000000000000e+00  6.4895675503084226e-07 -5.5689998677692044e-11 0.0000000000000000e+00  6.2364946153989404e-07 2.5708614652092498e-10 0.0000000000000000e+00  6.5066279813294787e-07 8.5145822469556582e-09 0.0000000000000000e+00  6.5287480338173605e-07 -9.1094625284461435e-11 0.0000000000000000e+00  6.4645427307200903e-07 7.6686427129195321e-10 0.0000000000000000e+00  4.8539139988976783e-09 -7.6941224928886636e-07 0.0000000000000000e+00  6.5298660458398193e-07 4.0345145169496994e-10 0.0000000000000000e+00  7.1642595403935170e-09 6.6510908414516315e-07 0.0000000000000000e+00  -2.9419249845363953e-20 -2.8245896966830389e-20 0.0000000000000000e+00  -5.4958247736721334e-22 3.8009833273396945e-21 0.0000000000000000e+00  2.4876915091578422e-22 4.5708874366685972e-21 0.0000000000000000e+00  2.4913002970953420e-22 -4.4882135584341029e-21 0.0000000000000000e+00  -5.2609868393825549e-22 -5.0141751111152255e-21 0.0000000000000000e+00  -3.2242245209878787e-20 2.4529942189520367e-20 0.0000000000000000e+00  6.5081449197935932e-07 -4.5200395646460240e-10 0.0000000000000000e+00  6.2769154518150039e-07 -5.2540911108543551e-10 0.0000000000000000e+00  6.2780782847217393e-07 -1.5168617111507063e-09 0.0000000000000000e+00  6.2711081207585110e-07 2.2225169786942527e-10 0.0000000000000000e+00  6.2743214532690321e-07 -8.5770525036511924e-11 0.0000000000000000e+00  6.2690285109477499e-07 6.8925767004629339e-10 0.0000000000000000e+00  6.4744872195767732e-07 8.5724972613443233e-10 0.0000000000000000e+00  6.5024359095354594e-07 9.4635282270590926e-09 0.0000000000000000e+00  6.4765588472697716e-07 -1.1346481225925305e-10 0.0000000000000000e+00  6.5217001211278682e-07 -3.7768497817079589e-10 0.0000000000000000e+00  6.5313241043358323e-07 1.8369077571009475e-10 0.0000000000000000e+00  6.5334411670832453e-07 -1.4378389692052272e-10 0.0000000000000000e+00  -1.1934118512957671e-07 9.6638946642582896e-07 0.0000000000000000e+00  -2.4373616964615809e-07 -1.0074217753944761e-06 0.0000000000000000e+00  6.2894047202713320e-07 -2.1407309021167554e-09 0.0000000000000000e+00  6.4633192952509039e-07 8.0795881134220978e-10 0.0000000000000000e+00  6.5341685665097384e-07 -1.3120070133423983e-10 0.0000000000000000e+00  6.5327628166514193e-07 -1.4919657934957540e-10 0.0000000000000000e+00  4.6057112160555858e-21 5.3325933511393372e-23 0.0000000000000000e+00  5.7775930631951489e-07 4.1848081499739898e-08 0.0000000000000000e+00  2.6884733138776636e-06 3.1529573268893055e-06 0.0000000000000000e+00  2.7338103930575689e-06 -3.3655891017380386e-06 0.0000000000000000e+00  6.5365881534449728e-07 -1.0507681060970419e-10 0.0000000000000000e+00  6.2241039702802089e-07 6.2750991024730007e-10 0.0000000000000000e+00  4.6254816322603219e-21 1.3537528835556080e-23 0.0000000000000000e+00  6.2522494523043513e-07 -1.0048581136854373e-09 0.0000000000000000e+00  6.5366485388618161e-07 1.1533217352343732e-10 0.0000000000000000e+00  6.4474326155667329e-07 5.1888871239370039e-08 0.0000000000000000e+00  6.5254248031742521e-07 2.6748092695306828e-11 0.0000000000000000e+00  4.9812637576070763e-21 -4.6792641594324446e-23 0.0000000000000000e+00  6.5331826070817398e-07 2.6232991203801842e-10 0.0000000000000000e+00  6.5306748446258062e-07 -2.9123277038192534e-10 0.0000000000000000e+00  6.4769072415334333e-07 -2.2072525490457280e-10 0.0000000000000000e+00  6.4944330933665415e-07 1.2378998891540807e-10 0.0000000000000000e+00  6.4783727618925202e-07 -4.9186451919498335e-10 0.0000000000000000e+00  4.6957695812015838e-21 3.9315342871631698e-23 0.0000000000000000e+00  6.4982481461087913e-07 -1.8883305463877741e-10 0.0000000000000000e+00  6.5338617232917594e-07 5.2016582977548448e-10 0.0000000000000000e+00  6.2853240653847380e-07 1.4758011643237572e-09 0.0000000000000000e+00  6.5328287347594070e-07 -2.8266816888500707e-11 0.0000000000000000e+00  6.5338706908660050e-07 -3.2546103427408312e-09 0.0000000000000000e+00  6.5279563876877904e-07 9.0148650121766223e-11 0.0000000000000000e+00  6.5287888099871830e-07 -1.5350811547291498e-10 0.0000000000000000e+00  6.3013417645584084e-07 -9.8699167028176021e-09 0.0000000000000000e+00  6.4939534045093336e-07 3.9627515032670352e-10 0.0000000000000000e+00  6.4914092629172638e-07 -5.8080927199215494e-10 0.0000000000000000e+00  6.4849197906848350e-07 -4.2041712241728642e-10 0.0000000000000000e+00  6.4961600505186513e-07 -1.0633824380949208e-09 0.0000000000000000e+00  6.5275249710669944e-07 2.0119329790213692e-10 0.0000000000000000e+00  4.8507794944226812e-21 -5.7726094208760484e-23 0.0000000000000000e+00  6.0456382616742640e-07 -3.4984125710782165e-07 0.0000000000000000e+00  3.5706264765432704e-07 -6.5848425094237261e-07 0.0000000000000000e+00  1.5222761774626776e-07 -4.9501719380640938e-07 0.0000000000000000e+00  4.6716147390840896e-07 -1.6766993234483048e-07 0.0000000000000000e+00  6.5348326976618254e-07 3.4067557611640038e-11 0.0000000000000000e+00  6.5294795979545175e-07 -3.4456326304572538e-10 0.0000000000000000e+00  6.5286720186259554e-07 5.5461347209483901e-11 0.0000000000000000e+00  6.5285255165574089e-07 -1.2491029139930707e-10 0.0000000000000000e+00  6.5198525179037558e-07 -1.4146503663794380e-09 0.0000000000000000e+00  6.4902594731369701e-07 1.4461168483676292e-09 0.0000000000000000e+00  4.9660695502245258e-21 6.4400572988109044e-24 0.0000000000000000e+00  6.4855996168911260e-07 9.0554214064581317e-10 0.0000000000000000e+00  6.5287481738843083e-07 -1.9339606523556932e-10 0.0000000000000000e+00  6.5285596083449924e-07 2.8039861539818470e-12 0.0000000000000000e+00  6.4840928611797848e-07 5.8206549258141646e-10 0.000000