<?xml version="1.0"?>
<VTKFile type="UnstructuredGrid"  version="0.1"  >
<UnstructuredGrid>
<Piece  NumberOfPoints="1079" NumberOfCells="1944">
<Points>
<DataArray  type="Float64"  NumberOfComponents="3"  format="ascii">0.08500000000000001 0.02 0  0.005 0.02 0  0.005 0.03 0  0 0.03 0  0 0 0  0.005 0 0  0.005 0.01 0  0.08500000000000001 0.01 0  0 0.015 0  0 0.0075 0  0 0.0225 0  0.04500000000000001 0.02 0  0.04500000000000001 0.01 0  0.025 0.01 0  0.025 0.02 0  0.065 0.02 0  0.065 0.01 0  0.035 0.02 0  0.035 0.01 0  0.07500000000000001 0.02 0  0.07500000000000001 0.01 0  0.015 0.02 0  0.015 0.01 0  0.05500000000000001 0.01 0  0.05500000000000001 0.02 0  0.07000000000000001 0.01 0  0.07000000000000001 0.02 0  0.05 0.01 0  0.03 0.01 0  0.03 0.02 0  0.04000000000000001 0.01 0  0.01 0.01 0  0.02 0.02 0  0.06 0.015 0  0.08500000000000001 0.015 0  0.05 0.02 0  0.07250000000000001 0.015 0  0.04000000000000001 0.02 0  0.03750000000000001 0.015 0  0.0525 0.015 0  0.02 0.01 0  0.01 0.02 0  0.0275 0.015 0  0.0125 0.015 0  0.08000000000000002 0.01 0  0.08000000000000002 0.02 0  0.0325 0.014375 0  0.04291666666666667 0.015 0  0.065 0.015 0  0.005 0.005 0  0.005 0.015 0  0.02208333333333334 0.015 0  0.07791666666666668 0.015 0  0.005 0.025 0  0.06 0.01 0  0.06 0.02 0  0.01729166666666667 0.01572916666666667 0  0.04770833333333334 0.01427083333333334 0  0.06875000000000001 0.01625 0  0.008750000000000001 0.01625 0  0.05625000000000001 0.01625 0  0 0.00375 0  0 0.01875 0  0 0.01125 0  0 0.02625 0  0.08145833333333334 0.01354166666666667 0  0.0675 0.01 0  0.0075 0.0125 0  0.0625 0.0175 0  0.0575 0.0125 0  0.0625 0.0125 0  0.08207465277777778 0.01707465277777778 0  0.06767857142857144 0.01321428571428571 0  0.0175 0.01 0  0.01875 0.01291382575757576 0  0.0475 0.02 0  0.04564168086314595 0.01679860519591141 0  0.00296875 0.0125 0  0.0025 0.03 0  0.0025 0 0  0.00296875 0.0175 0  0.01521990740740741 0.0132349537037037 0  0.0497800925925926 0.0167650462962963 0  0.0325 0.02 0  0.03474264705882353 0.01674632352941176 0  0.03750000000000001 0.02 0  0.03025735294117647 0.01674632352941176 0  0.0275 0.02 0  0.0525 0.02 0  0.0125 0.01 0  0.04020833333333334 0.01322916666666667 0  0.03750000000000001 0.01 0  0.0225 0.02 0  0.02479166666666667 0.01677083333333333 0  0.07520833333333335 0.01322916666666667 0  0.07250000000000001 0.01 0  0.07520833333333335 0.01677083333333334 0  0.07250000000000001 0.02 0  0.04020833333333334 0.01677083333333333 0  0.0225 0.01 0  0.02375 0.01262152777777778 0  0.04250000000000001 0.02 0  0.04250000000000001 0.01 0  0.07750000000000001 0.01 0  0.07750000000000001 0.02 0  0.05036151960784314 0.01294424019607843 0  0.0705560064935065 0.01284699675324675 0  0.05458333333333334 0.01291666666666666 0  0.0021875 0.024375 0  0.005 0.0275 0  0.01125 0.0175 0  0.01463848039215686 0.01705575980392157 0  0.01 0.01375 0  0.03625 0.0125 0  0.0021875 0.009375 0  0.05375000000000001 0.0175 0  0.07125000000000001 0.0175 0  0.005 0.0025 0  0.0021875 0.005625 0  0.02655220103578155 0.01234889948210923 0  0.002187499999999999 0.020625 0  0.02979166666666667 0.01302083333333333 0  0.0525 0.01 0  0.07895833333333334 0.0125 0  0.01994277885235332 0.01704213007736944 0  0.07934656179076068 0.01733823814273861 0  0.04505722114764669 0.01295786992263056 0  0.06625 0.0175 0  0.006250000000000001 0.0175 0  0.05750000000000001 0.02 0  0.05875000000000001 0.0175 0  0.005 0.0225 0  0.005 0.0075 0  0.002375 0.027375 0  0.002375 0.002625000000000001 0  0.0475 0.01 0  0.0175 0.02 0  0.0325 0.01 0  0.03375 0.0121875 0  0.04261299435028249 0.01749205508474576 0  0.08500000000000001 0.0125 0  0.08250000000000002 0.01 0  0.02121963399965531 0.01224824108143494 0  0.0675 0.02 0  0.0125 0.02 0  0.02720152243589744 0.0175 0  0.03715165441176471 0.0175 0  0.08500000000000001 0.0175 0  0.0275 0.01 0  0.0025 0.0149560546875 0  0.0075 0.01 0  0.0075 0.02 0  0.06526785714285716 0.0125 0  0.01281031447005516 0.0125 0  0.0625 0.015 0  0.06 0.0125 0  0.05750000000000001 0.01 0  0.0625 0.02 0  0.0625 0.01 0  0.08250000000000002 0.02 0  0.04260103740101855 0.01252623201412851 0  0.02240052247582197 0.01750164767101344 0  0.07293583459427785 0.01238479732953041 0  0.005234374999999999 0.012265625 0  0.03528131980640358 0.01454684009679821 0  0.0325 0.01760027210036557 0  0.02532593822924343 0.01428227733767297 0  0.08009952069819683 0.01527145502895417 0  0.01987282359856536 0.01482587683689801 0  0.04828232595121382 0.01210233572595705 0  0.01671767404878618 0.01789766427404295 0  0.05125 0.01829007549029352 0  0.05247215456215357 0.01288882122882024 0  0.07338729919678716 0.01799385040160642 0  0.03838729919678716 0.01200614959839357 0  0.07717482110586968 0.01780301674207099 0  0.04771860040890012 0.01773306039388322 0  0.03125 0.01160380747126437 0  0.06875000000000001 0.01154265873015873 0  0.07625000000000001 0.01154065860215054 0  0.01625 0.01153997817696946 0  0.068125 0.018125 0  0.05437500000000001 0.015625 0  0.066875 0.015625 0  0.07039794950204951 0.01494384850614853 0  0.05687500000000001 0.018125 0  0.006875 0.015625 0  0.008749999999999999 0.01833333333333333 0  0.010625 0.015625 0  0.05625 0.01416666666666667 0  0.05812500000000001 0.015625 0  0.0449088595298192 0.01494528408816316 0  0 0.016875 0  0 0.013125 0  0.04962452342047931 0.01478673066448802 0  0.0153754765795207 0.01521326933551198 0  0.0771774565913315 0.01322498191305479 0  0.01857756431135545 0.01840228599899994 0  0.04642243568864456 0.01159771400100006 0  0.08125000000000002 0.01155637254901961 0  0.08317650804863432 0.0118234919513657 0  0.08288217288011697 0.01511353252923977 0  0.02837253504384828 0.0117177464035174 0  0.03896057962520807 0.01831163685754031 0  0.01125 0.0114244162490927 0  0.00935910490099115 0.0119067901980177 0  0.02946078431372549 0.01495404411764706 0  0.02875 0.0185829434466942 0  0.002968749999999999 0.0225 0  0.064375 0.016875 0  0.00296875 0.0075 0  0 0.001875 0  0 0.005625 0  0 0.009375 0  0 0.020625 0  0 0.024375 0  0 0.028125 0  0.06062500000000001 0.01812500000000001 0  0.008303571428571429 0.01446428571428572 0  0.01375 0.01865917058160413 0  0.05137790313978056 0.01143372888932909 0  0.04125000000000001 0.01131513063942604 0  0.04101690263896279 0.01844430285842771 0  0.02399563533148224 0.01844349395710867 0  0.08125000000000002 0.01868815426145731 0  0.05354684380692146 0.01145463537600848 0  0.01699195823639423 0.01315138909884649 0  0.07598357371794873 0.015 0  0.04098357371794872 0.015 0  0.003744047619047619 0.00375 0  0.003344630281690141 0.02580853873239437 0  0.04625 0.0187354532243972 0  0.06388392857142858 0.01138392857142858 0  0.06375 0.01375 0  0.05875 0.01375 0  0.06375 0.02 0  0.00622802734375 0.01372802734375 0  0.003630681818181818 0.001369318181818182 0  0.003630681818181818 0.02863068181818182 0  0.06125 0.01625 0  0.06125 0.01125 0  0.05625000000000001 0.01 0  0.05875 0.01125 0  0.06125 0.01375 0  0.08337864763241221 0.0183786476324122 0  0.05213634138653413 0.01674432930673294 0  0.04375000000000001 0.01 0  0.07424178685897437 0.01529258578431373 0  0.03924178685897436 0.01529258578431372 0  0.03410139294454583 0.01843406022904556 0  0.03089860705545417 0.01843406022904556 0  0.02094160484316717 0.01850229584291991 0  0.04375000000000001 0.02 0  0.04437042160883325 0.01820701498672512 0  0.04816311705429156 0.01600061344661149 0  0.07151224904251052 0.0114127410511319 0  0.04395528506193162 0.01639387970349481 0  0.0128750358694518 0.0167500179347259 0  0.02855808448399799 0.01642839899839741 0  0.02812690373330794 0.01340955081400569 0  0.08358500641945087 0.01351822349116885 0  0.05590277777777778 0.01173611111111111 0  0.06683110430364615 0.01164926404662283 0  0.02573206694914602 0.01842532451809762 0  0.01438126661842046 0.01166701193099454 0  0.02384283211216029 0.01526549696571563 0  0.03625 0.02 0  0.004609375000000001 0.0182421875 0  0.003398437500000001 0.01943359375 0  0.001728307845744682 0.01894718251329787 0  0.004377805359085963 0.01656966216675735 0  0.04649673309852075 0.0153889662370871 0  0.03615513600614297 0.01592654988586041 0  0.03316985071935832 0.01598763605018279 0  0.03110111603888768 0.01529816275177977 0  0.01370614113484869 0.0138804542047638 0  0.04930041102671841 0.01842260568883502 0  0.07875000000000001 0.02 0  0.0745395359848485 0.01165101111925709 0  0.03860755698543604 0.01373741558556884 0  0.02605038706571737 0.01573944002207753 0  0.07559826163500957 0.01841729376139847 0  0.04437500000000001 0.01149157931286774 0  0.06874116707361365 0.01454618473032123 0  0.003761917372881356 0.0239307468220339 0  0.003984374999999999 0.01125 0  0.003768503289473684 0.01392539576480263 0  0.001796875 0.0111328125 0  0.003761917372881356 0.008930746822033899 0  0.005 0.00625 0  0.003761917372881355 0.0210692531779661 0  0.06633928571428571 0.01410714285714285 0  0.006484375 0.01125 0  0.08364120589325512 0.01657288979763549 0  0.03576267476503373 0.0184116442851204 0  0.07370875846579374 0.0137848203678562 0  0.06964285714285715 0.01758928571428571 0  0.05520833333333334 0.01833333333333333 0  0.06491071428571429 0.01839285714285714 0  0.0510098951944636 0.01559941474766356 0  0.01786087179886325 0.0115702210443714 0  0.01972197383235524 0.01160576093166696 0  0.01804697593127788 0.01433503795474974 0  0.001644074528704677 0.01642892723865279 0  0.00125 0.03 0  0.001497685185185185 0.001267746913580247 0  0.07315451164202422 0.01643443118912983 0  0.001233906745910645 0.0140625 0  0.01162635071030191 0.01362229857939618 0  0.01528023503083844 0.01845923557506155 0  0.06625 0.02 0  0.07695012019230771 0.01624387078484555 0  0.03139091092855769 0.01320776147621796 0  0.03857339107781042 0.01675295051810485 0  0.001754993120977522 0.02590789105493891 0  0.002288757784711197 0.00412546923654445 0  0.07914382119690884 0.01404430049871201 0  0.001391810103286306 0.01257390899021902 0  0.0419501201923077 0.01614675005432421 0  0.001484375 0.007018229166666667 0  0.001484375 0.02201822916666666 0  0.048
[...]
<PointData  Vectors="velocity"> 
<DataArray  type="Float64"  Name="velocity"  NumberOfComponents="3" format="ascii">1.3620035651153049e-05 1.0389853140447899e-19 0.0000000000000000e+00  2.8854516706508402e-19 -3.1432091399893766e-19 0.0000000000000000e+00  1.1166938269465904e-17 -6.2802914418342995e-04 0.0000000000000000e+00  -1.3317607862103789e-17 -6.2802914418342898e-04 0.0000000000000000e+00  -1.2407709188295468e-17 6.2802914418342919e-04 0.0000000000000000e+00  1.2159555004529561e-17 6.2802914418342854e-04 0.0000000000000000e+00  2.7323685913155399e-19 2.6368543418610543e-19 0.0000000000000000e+00  1.3986853958839925e-05 -1.0525241414109078e-19 0.0000000000000000e+00  2.9902206923465053e-20 -9.8495445102629825e-22 0.0000000000000000e+00  -3.2710522045486528e-21 2.5899855653137170e-19 0.0000000000000000e+00  1.7116263403194986e-21 -2.8679914460005917e-19 0.0000000000000000e+00  2.5243903338917070e-19 -8.2411692049404722e-22 0.0000000000000000e+00  2.2555580071540630e-19 1.3531366067665232e-21 0.0000000000000000e+00  2.6760964798967172e-19 7.4667870532832502e-22 0.0000000000000000e+00  2.1760571067932764e-19 -9.3467899291828741e-22 0.0000000000000000e+00  2.4726892193239541e-19 7.3920476502430078e-22 0.0000000000000000e+00  2.5933263286000475e-19 3.2008257140635046e-22 0.0000000000000000e+00  2.0059064066948634e-19 -4.2310066171448263e-22 0.0000000000000000e+00  2.8405178666731034e-19 -3.3295008128396072e-22 0.0000000000000000e+00  2.4586822334652098e-19 1.6173314781413537e-21 0.0000000000000000e+00  2.3353397535405618e-19 9.6346950887666603e-22 0.0000000000000000e+00  2.0600700662654630e-19 -5.6547531379752995e-22 0.0000000000000000e+00  2.2656260152125441e-19 -4.3664524406548326e-22 0.0000000000000000e+00  2.4436408328666781e-19 -2.8289804460737677e-21 0.0000000000000000e+00  2.3630066090814046e-19 1.0184361962324007e-21 0.0000000000000000e+00  2.2749872687704095e-19 3.7632322885033479e-22 0.0000000000000000e+00  2.6954273593107065e-19 -1.0082026716171754e-21 0.0000000000000000e+00  2.5126397860694497e-19 8.1534914211322858e-22 0.0000000000000000e+00  2.5350053551844063e-19 1.3022287783481538e-22 0.0000000000000000e+00  2.1796926626033451e-19 -5.5306887752911124e-22 0.0000000000000000e+00  2.3771909413674211e-19 7.9313642895829197e-22 0.0000000000000000e+00  2.4202145556061627e-19 1.3764970285010051e-21 0.0000000000000000e+00  2.1267660897059806e-19 -4.6370837835386232e-22 0.0000000000000000e+00  3.4689255746329129e-05 -5.0585421902989057e-09 0.0000000000000000e+00  3.3314079891512954e-05 6.7085527889791483e-23 0.0000000000000000e+00  2.0694847857923262e-19 1.5300982373411978e-22 0.0000000000000000e+00  3.4688607300215755e-05 1.1695027523739472e-08 0.0000000000000000e+00  2.5732646132357003e-19 -2.3442006270780286e-21 0.0000000000000000e+00  3.4659740767600981e-05 -1.6868524336761835e-08 0.0000000000000000e+00  3.4653114507693788e-05 -1.8947540995449886e-09 0.0000000000000000e+00  2.2596010484924662e-19 8.9679469023255045e-23 0.0000000000000000e+00  2.5875351906264336e-19 -4.7633325617674112e-21 0.0000000000000000e+00  3.4657585064948112e-05 -8.3186529699176838e-10 0.0000000000000000e+00  3.4585306727953476e-05 -1.2333350136814450e-07 0.0000000000000000e+00  2.1151103891025103e-19 -8.7006439495858752e-22 0.0000000000000000e+00  2.4790196307982362e-19 4.2793713911158789e-21 0.0000000000000000e+00  3.4649572655132942e-05 1.0317054654728769e-09 0.0000000000000000e+00  3.4684701348881791e-05 -3.3781493784541244e-09 0.0000000000000000e+00  3.4675322682350542e-05 -2.9192958652654416e-09 0.0000000000000000e+00  -1.6520451394584827e-20 2.9776620826866144e-19 0.0000000000000000e+00  2.6204815174745050e-05 -1.2650655961037083e-06 0.0000000000000000e+00  3.4644126803989803e-05 8.9293635762735270e-09 0.0000000000000000e+00  3.4634997258870929e-05 1.7834698387720493e-09 0.0000000000000000e+00  -2.4881691267760660e-20 -3.6617356971433653e-19 0.0000000000000000e+00  2.2101231991651410e-19 3.8875065409291819e-22 0.0000000000000000e+00  2.4723582044665188e-19 3.1275789718986923e-21 0.0000000000000000e+00  3.4659842018116494e-05 -1.0148482603116477e-08 0.0000000000000000e+00  3.4671502341953869e-05 9.1702842014566518e-09 0.0000000000000000e+00  3.4675601054541915e-05 -8.8370835889771799e-09 0.0000000000000000e+00  3.4128491460533147e-05 -1.0680585616039712e-06 0.0000000000000000e+00  3.4650965108057032e-05 -2.6085785984502054e-08 0.0000000000000000e+00  -1.5123314083573905e-19 6.1189447584772621e-20 0.0000000000000000e+00  1.4393937209883641e-20 -1.4468339271008286e-19 0.0000000000000000e+00  1.9582601711343151e-20 1.4110992409644330e-19 0.0000000000000000e+00  -1.7332672117836862e-19 2.8887786863061437e-20 0.0000000000000000e+00  3.4316327353964643e-05 -3.3186246661444999e-07 0.0000000000000000e+00  2.0796453073056312e-19 -6.0392660291307647e-22 0.0000000000000000e+00  3.4217249861641795e-05 2.0093015897086453e-06 0.0000000000000000e+00  3.4611050970242314e-05 1.1050722617579233e-09 0.0000000000000000e+00  3.4626555629649356e-05 2.8741254958575172e-09 0.0000000000000000e+00  3.4657539378031622e-05 -1.4948668802561369e-08 0.0000000000000000e+00  3.4278849095746912e-05 6.3443008187118861e-07 0.0000000000000000e+00  3.4653686172590049e-05 -7.0156072050428076e-09 0.0000000000000000e+00  2.2594878104866839e-19 -3.7524424216059061e-23 0.0000000000000000e+00  3.4626696423014299e-05 4.4620502726697017e-10 0.0000000000000000e+00  2.7697756307204927e-19 4.2652887558965256e-21 0.0000000000000000e+00  3.4684655729154896e-05 -2.6395767095282950e-08 0.0000000000000000e+00  1.6615017171279236e-05 1.3680683316476122e-05 0.0000000000000000e+00  -6.7312060478756192e-19 -6.2802914418343223e-04 0.0000000000000000e+00  -1.1005290361575815e-18 6.2802914418343234e-04 0.0000000000000000e+00  1.7136940160113603e-05 -1.6730361602972020e-05 0.0000000000000000e+00  3.4614919404918047e-05 -4.4914772208072382e-08 0.0000000000000000e+00  3.4642492658035886e-05 3.1117149782116730e-08 0.0000000000000000e+00  2.3291196192794843e-19 2.1041713721186594e-21 0.0000000000000000e+00  3.4639549218695145e-05 -1.0704064984561395e-08 0.0000000000000000e+00  2.5159799090736540e-19 1.5279886246786212e-21 0.0000000000000000e+00  3.4646240459418510e-05 -1.0988806107147042e-08 0.0000000000000000e+00  2.6327723833186288e-19 5.1771697502599505e-22 0.0000000000000000e+00  2.2740225477157189e-19 -2.4359110872501694e-23 0.0000000000000000e+00  2.5093899468469073e-19 1.4066995926868736e-21 0.0000000000000000e+00  3.4657418682494284e-05 1.0729112174314299e-08 0.0000000000000000e+00  2.3044362645546684e-19 8.6155681888967541e-22 0.0000000000000000e+00  2.6420684381114311e-19 6.9583817350845477e-22 0.0000000000000000e+00  3.4635487287692601e-05 2.7899475607639387e-09 0.0000000000000000e+00  3.4669303447696945e-05 5.5406213468344351e-09 0.0000000000000000e+00  2.3402779334949794e-19 1.8278005608061954e-22 0.0000000000000000e+00  3.4662704194347732e-05 2.3776814418804957e-08 0.0000000000000000e+00  2.6527695975471161e-19 2.9070457875260332e-21 0.0000000000000000e+00  3.4678704734040773e-05 -4.4050169228943680e-08 0.0000000000000000e+00  2.2782087188069407e-19 6.9268590456799089e-23 0.0000000000000000e+00  3.4605885360324040e-05 2.3471709328991021e-08 0.0000000000000000e+00  2.4489640688720024e-19 2.3475499126457079e-23 0.0000000000000000e+00  2.5665427137419826e-19 2.3576539982428684e-21 0.0000000000000000e+00  2.4549272393084867e-19 4.1438907458562324e-21 0.0000000000000000e+00  2.7354802126691674e-19 -1.5985224450146272e-21 0.0000000000000000e+00  3.4664811902768559e-05 2.6232042146218225e-08 0.0000000000000000e+00  3.4672961722658287e-05 4.0983920139698708e-08 0.0000000000000000e+00  3.4662826029715143e-05 4.3126988767126409e-09 0.0000000000000000e+00  -6.8983479032380784e-06 -3.7952992834006609e-05 0.0000000000000000e+00  4.7649500917756357e-20 -5.0169502010822965e-19 0.0000000000000000e+00  3.4773966450989557e-05 -2.8231481594172862e-07 0.0000000000000000e+00  3.4708921815562942e-05 -9.2648146965611654e-08 0.0000000000000000e+00  3.4262196579324418e-05 1.0780340649240231e-07 0.0000000000000000e+00  3.4580400305212017e-05 -3.7194180097378779e-08 0.0000000000000000e+00  5.8547620250706096e-06 3.1183313185774064e-05 0.0000000000000000e+00  3.4610307821678672e-05 -4.7348641760400545e-11 0.0000000000000000e+00  3.4683935607280418e-05 1.2734433137399810e-10 0.0000000000000000e+00  9.3502183220060234e-20 2.8050654966018068e-19 0.0000000000000000e+00  -6.1344835897585290e-06 3.3204603491018764e-05 0.0000000000000000e+00  3.4605558605881791e-05 -2.3787037751446125e-08 0.0000000000000000e+00  5.7980520910684322e-06 -3.5478696154475864e-05 0.0000000000000000e+00  3.4665241804065060e-05 -5.6611740948836913e-09 0.0000000000000000e+00  2.3305275873229357e-19 -1.9031789833851394e-21 0.0000000000000000e+00  3.4598287828195539e-05 -1.0600161076469605e-07 0.0000000000000000e+00  3.4630508528940351e-05 9.4053369346972815e-10 0.0000000000000000e+00  3.4615837003594119e-05 1.5998832361473045e-07 0.0000000000000000e+00  3.4673755451032085e-05 -7.6835061760623370e-09 0.0000000000000000e+00  3.4658757097964880e-05 -4.0974207056820919e-08 0.0000000000000000e+00  3.4547304127109753e-05 -6.3110053400879183e-06 0.0000000000000000e+00  2.5766334389874536e-19 -3.4019361991839446e-21 0.0000000000000000e+00  3.4595597815558148e-05 -1.2130128994308324e-08 0.0000000000000000e+00  3.5037124378920062e-21 -3.1805375782153075e-19 0.0000000000000000e+00  2.9099642167719511e-21 2.9540325382541999e-19 0.0000000000000000e+00  -7.5524604240670280e-05 -8.5857640796991642e-05 0.0000000000000000e+00  -6.1856084610915251e-05 7.1070957457270283e-05 0.0000000000000000e+00  2.3949717054426938e-19 6.3211879894496773e-23 0.0000000000000000e+00  2.6344990187411627e-19 3.9681880416085092e-21 0.0000000000000000e+00  2.2654294465050775e-19 4.0472586446710408e-22 0.0000000000000000e+00  3.4597335910341156e-05 4.2135885230978553e-08 0.0000000000000000e+00  3.4611759916634574e-05 2.5562050613659148e-08 0.0000000000000000e+00  3.1485675666358232e-05 -8.7179806993854870e-21 0.0000000000000000e+00  2.3261261806790585e-19 -7.3966731622470063e-21 0.0000000000000000e+00  3.4611675119922888e-05 1.0085726736600122e-08 0.0000000000000000e+00  2.4641977497752405e-19 1.6237386345480681e-21 0.0000000000000000e+00  2.2087987186462733e-19 -4.4003411973031223e-22 0.0000000000000000e+00  3.4645194957068018e-05 -4.3333758910540281e-09 0.0000000000000000e+00  3.4682963727375393e-05 3.6512585349890947e-09 0.0000000000000000e+00  3.1449773416875835e-05 9.9428679063361295e-21 0.0000000000000000e+00  2.4264106417734227e-19 -2.9967218178719494e-21 0.0000000000000000e+00  1.2890078980316318e-05 -1.1214709958590787e-06 0.0000000000000000e+00  2.4897950624611776e-19 8.1778590024720678e-21 0.0000000000000000e+00  3.0095370688505266e-19 -1.0801530762060788e-20 0.0000000000000000e+00  3.4646769747236146e-05 -1.5567181291875488e-08 0.0000000000000000e+00  3.4533355635031999e-05 -3.5212773935672294e-08 0.0000000000000000e+00  3.4692384221444455e-05 2.3409883858628552e-10 0.0000000000000000e+00  3.4626981382253278e-05 2.1748682214250512e-08 0.0000000000000000e+00  2.5895681687698580e-19 2.4245210873071374e-22 0.0000000000000000e+00  2.7728714959653582e-19 6.7303053965656369e-22 0.0000000000000000e+00  2.3413641287183558e-19 -4.6176456960901253e-21 0.0000000000000000e+00  2.3087227011671939e-19 3.3163406296328999e-21 0.0000000000000000e+00  3.4620295405098078e-05 -5.6510968798821989e-09 0.0000000000000000e+00  3.4624485200165126e-05 1.3454057654575692e-08 0.0000000000000000e+00  3.4616548322313181e-05 -1.1537731153024685e-08 0.0000000000000000e+00  3.1460698379720116e-05 9.4580061721904002e-06 0.0000000000000000e+00  3.4664831841378357e-05 -9.9685646272148394e-09 0.0000000000000000e+00  3.4608322484492741e-05 1.1298636667162816e-08 0.0000000000000000e+00  3.4656355166538827e-05 1.0308232219438299e-08 0.0000000000000000e+00  3.4463289587564918e-05 3.8774786967912582e-08 0.0000000000000000e+00  3.4640576457674408e-05 3.3130834433839007e-09 0.0000000000000000e+00  3.4531022574000535e-05 9.4705650283496232e-09 0.0000000000000000e+00  3.4609274122213860e-05 8.0262422626676115e-09 0.0000000000000000e+00  3.4463288826993347e-05 2.5755119813509953e-09 0.0000000000000000e+00  3.4651390689014652e-05 -3.3248672359305272e-08 0.0000000000000000e+00  3.4548081551590163e-05 2.0444629209568981e-08 0.0000000000000000e+00  3.4516139530115339e-05 -1.2802896042271534e-08 0.0000000000000000e+00  3.4595596225808854e-05 1.4325053969232866e-08 0.0000000000000000e+00  3.4644423559844115e-05 4.3369747465688046e-08 0.0000000000000000e+00  3.4410951974014650e-05 -4.0059915439355995e-08 0.0000000000000000e+00  3.4407791924848239e-05 3.7416782645613429e-08 0.0000000000000000e+00  3.4464280940193751e-05 -5.2484106469599825e-09 0.0000000000000000e+00  3.4396393760822878e-05 -2.3771034097220912e-08 0.0000000000000000e+00  3.4481129407453399e-05 -2.0985261993174956e-08 0.0000000000000000e+00  3.4649238896442050e-05 -9.4448334316755277e-09 0.0000000000000000e+00  3.4669127006004268e-05 -6.4100514487362341e-09 0.0000000000000000e+00  3.4684339144517708e-05 8.1446770978215462e-09 0.0000000000000000e+00  3.4516026787830702e-05 -3.2730728855353077e-08 0.0000000000000000e+00  3.1756597456365447e-05 -1.8807500493014639e-06 0.0000000000000000e+00  3.5447736952160281e-05 -1.0336051919820020e-06 0.0000000000000000e+00  3.4440709682676539e-05 -3.1682032275498810e-07 0.0000000000000000e+00  3.4661743489456753e-05 -1.0577816566835282e-08 0.0000000000000000e+00  3.4680204282590532e-05 -2.3275653390673669e-08 0.0000000000000000e+00  3.4681088995609238e-05 -5.4865512196371658e-09 0.0000000000000000e+00  2.1689714456436144e-20 -8.8578973724186769e-20 0.0000000000000000e+00  3.3372696269884187e-20 7.4031025385608037e-20 0.0000000000000000e+00  3.4662557897145027e-05 1.6683501334127391e-08 0.0000000000000000e+00  3.4654762605098011e-05 -5.0984661145853287e-08 0.0000000000000000e+00  3.4686386626311281e-05 6.6946236634416698e-09 0.0000000000000000e+00  3.4416984659347518e-05 1.5991131077911327e-08 0.0000000000000000e+00  3.4485335691910873e-05 1.8431535464885870e-08 0.0000000000000000e+00  3.4674624518793546e-05 -4.6661965270518276e-07 0.0000000000000000e+00  3.4233807018096137e-05 -2.1524092240991515e-06 0.0000000000000000e+00  3.3776634208841493e-05 3.7040917888601867e-08 0.0000000000000000e+00  3.4437939188691203e-05 3.0034503266416771e-08 0.0000000000000000e+00  3.4446226507827714e-05 -3.0656198763986329e-09 0.0000000000000000e+00  3.3120314666285759e-05 1.9801409573440916e-08 0.0000000000000000e+00  3.4568769410054669e-05 4.7024168228525239e-07 0.0000000000000000e+00  3.4654136370869374e-05 -4.7861251934993605e-09 0.0000000000000000e+00  3.4313395345359133e-05 4.0786936496459953e-08 0.0000000000000000e+00  3.5900090770779426e-07 -4.0530126803743354e-05 0.0000000000000000e+00  3.4660027880118085e-05 2.1443045853858590e-08 0.0000000000000000e+00  4.6601792436057099e-07 3.5550143793319940e-05 0.0000000000000000e+00  -1.4674294168876883e-18 -1.5005947724507408e-18 0.0000000000000000e+00  -2.7004000952443204e-20 2.0423193997646121e-19 0.0000000000000000e+00  1.4350070466311870e-20 2.4087318748829747e-19 0.0000000000000000e+00  1.2826035246983796e-20 -2.4238623812622621e-19 0.0000000000000000e+00  -2.7019389199791887e-20 -2.6603706289025858e-19 0.0000000000000000e+00  -1.5587379326586873e-18 1.1923171716328729e-18 0.0000000000000000e+00  3.4544793855917431e-05 -2.3974705391364267e-08 0.0000000000000000e+00  3.3326951597152096e-05 2.1468761318928374e-08 0.0000000000000000e+00  3.3315601398971444e-05 -7.6999599265011796e-08 0.0000000000000000e+00  3.3286735914953860e-05 1.0927251492555044e-08 0.0000000000000000e+00  3.3303727959488807e-05 -4.8816084318341844e-09 0.0000000000000000e+00  3.3275187276185196e-05 3.7431855905496390e-08 0.0000000000000000e+00  3.4365702289469153e-05 4.5617207381579562e-08 0.0000000000000000e+00  3.4514751247332797e-05 5.0257340118020397e-07 0.0000000000000000e+00  3.4377042457613617e-05 -5.7338415466513423e-09 0.0000000000000000e+00  3.4618368273599143e-05 -1.7659704526602255e-08 0.0000000000000000e+00  3.4667784779328001e-05 9.7407329527052357e-09 0.0000000000000000e+00  3.4679060281936796e-05 -7.6302598487198987e-09 0.0000000000000000e+00  -5.8514374885688360e-06 5.0677413931118422e-05 0.0000000000000000e+00  -1.2000737103763992e-05 -5.2455302674706877e-05 0.0000000000000000e+00  3.3382567358443971e-05 -1.1366065491143333e-07 0.0000000000000000e+00  3.4306689693973360e-05 4.3067509239158632e-08 0.0000000000000000e+00  3.4682898987349878e-05 -6.9649410777766804e-09 0.0000000000000000e+00  3.4675471418586719e-05 -7.9057400859544166e-09 0.0000000000000000e+00  2.3153428989324421e-19 2.7632692604442732e-21 0.0000000000000000e+00  3.0699229354910246e-05 2.3102330700916907e-06 0.0000000000000000e+00  1.4058827121316621e-04 1.6273822449008868e-04 0.0000000000000000e+00  1.4147178027415139e-04 -1.7278456239033162e-04 0.0000000000000000e+00  3.4695735804347179e-05 -5.5565012281762288e-09 0.0000000000000000e+00  3.3035877273855452e-05 3.3080738323631959e-08 0.0000000000000000e+00  2.3913918943610962e-19 7.0341944451649323e-22 0.0000000000000000e+00  3.3186609419679709e-05 -5.3867717874489450e-08 0.0000000000000000e+00  3.4696084623357104e-05 6.1155960030854311e-09 0.0000000000000000e+00  3.4222843946676675e-05 2.7538676025499179e-06 0.0000000000000000e+00  3.4636492949527353e-05 1.4062242286441674e-09 0.0000000000000000e+00  2.4277148581452165e-19 -2.4359895774993440e-21 0.0000000000000000e+00  3.4677663186265243e-05 1.3921817944806230e-08 0.0000000000000000e+00  3.4664372344232750e-05 -1.5454571223829843e-08 0.0000000000000000e+00  3.4378942585248950e-05 -1.1826669728835393e-08 0.0000000000000000e+00  3.4471979049721248e-05 6.5938612236182860e-09 0.0000000000000000e+00  3.4386021234760423e-05 -2.5697588727513750e-08 0.0000000000000000e+00  2.5346579891251332e-19 2.0284693337844522e-21 0.0000000000000000e+00  3.4492113471589317e-05 -1.0119036900691969e-08 0.0000000000000000e+00  3.4681265946796109e-05 2.7622622112526117e-08 0.0000000000000000e+00  3.3362175414170057e-05 7.7738874004805719e-08 0.0000000000000000e+00  3.4675805294917829e-05 -1.4911348176424262e-09 0.0000000000000000e+00  3.4675091903887681e-05 -1.6309576885168472e-07 0.0000000000000000e+00  3.4649911363044696e-05 4.8438252920654445e-09 0.0000000000000000e+00  3.4654376293084919e-05 -8.1068767747289588e-09 0.0000000000000000e+00  3.3445911020180676e-05 -5.2501898485163063e-07 0.0000000000000000e+00  3.4469567219477793e-05 2.0901583601154834e-08 0.0000000000000000e+00  3.4455845134992982e-05 -3.0989462372845860e-08 0.0000000000000000e+00  3.4421477800199499e-05 -2.2099392906030656e-08 0.0000000000000000e+00  3.4486830311919082e-05 -5.3287495980089219e-08 0.0000000000000000e+00  3.4647625675376081e-05 1.0964904824937744e-08 0.0000000000000000e+00  2.5354802144432513e-19 -3.1216269657504452e-21 0.0000000000000000e+00  3.1998368109793177e-05 -1.8418669339416902e-05 0.0000000000000000e+00  1.8886849502880446e-05 -3.4701912261904139e-05 0.0000000000000000e+00  8.0626482177248023e-06 -2.6060339201687939e-05 0.0000000000000000e+00  2.4762022910150042e-05 -8.7609961143169933e-06 0.0000000000000000e+00  3.4686435122544176e-05 1.8232857739420903e-09 0.0000000000000000e+00  3.4658028507160776e-05 -1.8292331616520298e-08 0.0000000000000000e+00  3.4653732211794670e-05 2.9543370156262100e-09 0.0000000000000000e+00  3.4652958067328677e-05 -6.5963754130891634e-09 0.0000000000000000e+00  3.4610118804273042e-05 -6.7132444639625367e-08 0.0000000000000000e+00  3.4449563303908227e-05 7.6669652510498333e-08 0.0000000000000000e+00  2.5992448236964646e-19 6.1321911450140902e-22 0.0000000000000000e+00  3.4425303050043681e-05 4.7940211175534048e-08 0.0000000000000000e+00  3.4654146283867009e-05 -1.0257316426590128e-08 0.0000000000000000e+00  3.4653102451776190e-05 2.7848390162034203e-10 0.0000000000000000e+00  3.4417133921205803e-05 3.0823337366816885e-08 0.0000000000