<?xml version="1.0"?>
<VTKFile type="UnstructuredGrid"  version="0.1"  >
<UnstructuredGrid>
<Piece  NumberOfPoints="1079" NumberOfCells="1944">
<Points>
<DataArray  type="Float64"  NumberOfComponents="3"  format="ascii">0.08500000000000001 0.02 0  0.005 0.02 0  0.005 0.03 0  0 0.03 0  0 0 0  0.005 0 0  0.005 0.01 0  0.08500000000000001 0.01 0  0 0.015 0  0 0.0075 0  0 0.0225 0  0.04500000000000001 0.02 0  0.04500000000000001 0.01 0  0.025 0.01 0  0.025 0.02 0  0.065 0.02 0  0.065 0.01 0  0.035 0.02 0  0.035 0.01 0  0.07500000000000001 0.02 0  0.07500000000000001 0.01 0  0.015 0.02 0  0.015 0.01 0  0.05500000000000001 0.01 0  0.05500000000000001 0.02 0  0.07000000000000001 0.01 0  0.07000000000000001 0.02 0  0.05 0.01 0  0.03 0.01 0  0.03 0.02 0  0.04000000000000001 0.01 0  0.01 0.01 0  0.02 0.02 0  0.06 0.015 0  0.08500000000000001 0.015 0  0.05 0.02 0  0.07250000000000001 0.015 0  0.04000000000000001 0.02 0  0.03750000000000001 0.015 0  0.0525 0.015 0  0.02 0.01 0  0.01 0.02 0  0.0275 0.015 0  0.0125 0.015 0  0.08000000000000002 0.01 0  0.08000000000000002 0.02 0  0.0325 0.014375 0  0.04291666666666667 0.015 0  0.065 0.015 0  0.005 0.005 0  0.005 0.015 0  0.02208333333333334 0.015 0  0.07791666666666668 0.015 0  0.005 0.025 0  0.06 0.01 0  0.06 0.02 0  0.01729166666666667 0.01572916666666667 0  0.04770833333333334 0.01427083333333334 0  0.06875000000000001 0.01625 0  0.008750000000000001 0.01625 0  0.05625000000000001 0.01625 0  0 0.00375 0  0 0.01875 0  0 0.01125 0  0 0.02625 0  0.08145833333333334 0.01354166666666667 0  0.0675 0.01 0  0.0075 0.0125 0  0.0625 0.0175 0  0.0575 0.0125 0  0.0625 0.0125 0  0.08207465277777778 0.01707465277777778 0  0.06767857142857144 0.01321428571428571 0  0.0175 0.01 0  0.01875 0.01291382575757576 0  0.0475 0.02 0  0.04564168086314595 0.01679860519591141 0  0.00296875 0.0125 0  0.0025 0.03 0  0.0025 0 0  0.00296875 0.0175 0  0.01521990740740741 0.0132349537037037 0  0.0497800925925926 0.0167650462962963 0  0.0325 0.02 0  0.03474264705882353 0.01674632352941176 0  0.03750000000000001 0.02 0  0.03025735294117647 0.01674632352941176 0  0.0275 0.02 0  0.0525 0.02 0  0.0125 0.01 0  0.04020833333333334 0.01322916666666667 0  0.03750000000000001 0.01 0  0.0225 0.02 0  0.02479166666666667 0.01677083333333333 0  0.07520833333333335 0.01322916666666667 0  0.07250000000000001 0.01 0  0.07520833333333335 0.01677083333333334 0  0.07250000000000001 0.02 0  0.04020833333333334 0.01677083333333333 0  0.0225 0.01 0  0.02375 0.01262152777777778 0  0.04250000000000001 0.02 0  0.04250000000000001 0.01 0  0.07750000000000001 0.01 0  0.07750000000000001 0.02 0  0.05036151960784314 0.01294424019607843 0  0.0705560064935065 0.01284699675324675 0  0.05458333333333334 0.01291666666666666 0  0.0021875 0.024375 0  0.005 0.0275 0  0.01125 0.0175 0  0.01463848039215686 0.01705575980392157 0  0.01 0.01375 0  0.03625 0.0125 0  0.0021875 0.009375 0  0.05375000000000001 0.0175 0  0.07125000000000001 0.0175 0  0.005 0.0025 0  0.0021875 0.005625 0  0.02655220103578155 0.01234889948210923 0  0.002187499999999999 0.020625 0  0.02979166666666667 0.01302083333333333 0  0.0525 0.01 0  0.07895833333333334 0.0125 0  0.01994277885235332 0.01704213007736944 0  0.07934656179076068 0.01733823814273861 0  0.04505722114764669 0.01295786992263056 0  0.06625 0.0175 0  0.006250000000000001 0.0175 0  0.05750000000000001 0.02 0  0.05875000000000001 0.0175 0  0.005 0.0225 0  0.005 0.0075 0  0.002375 0.027375 0  0.002375 0.002625000000000001 0  0.0475 0.01 0  0.0175 0.02 0  0.0325 0.01 0  0.03375 0.0121875 0  0.04261299435028249 0.01749205508474576 0  0.08500000000000001 0.0125 0  0.08250000000000002 0.01 0  0.02121963399965531 0.01224824108143494 0  0.0675 0.02 0  0.0125 0.02 0  0.02720152243589744 0.0175 0  0.03715165441176471 0.0175 0  0.08500000000000001 0.0175 0  0.0275 0.01 0  0.0025 0.0149560546875 0  0.0075 0.01 0  0.0075 0.02 0  0.06526785714285716 0.0125 0  0.01281031447005516 0.0125 0  0.0625 0.015 0  0.06 0.0125 0  0.05750000000000001 0.01 0  0.0625 0.02 0  0.0625 0.01 0  0.08250000000000002 0.02 0  0.04260103740101855 0.01252623201412851 0  0.02240052247582197 0.01750164767101344 0  0.07293583459427785 0.01238479732953041 0  0.005234374999999999 0.012265625 0  0.03528131980640358 0.01454684009679821 0  0.0325 0.01760027210036557 0  0.02532593822924343 0.01428227733767297 0  0.08009952069819683 0.01527145502895417 0  0.01987282359856536 0.01482587683689801 0  0.04828232595121382 0.01210233572595705 0  0.01671767404878618 0.01789766427404295 0  0.05125 0.01829007549029352 0  0.05247215456215357 0.01288882122882024 0  0.07338729919678716 0.01799385040160642 0  0.03838729919678716 0.01200614959839357 0  0.07717482110586968 0.01780301674207099 0  0.04771860040890012 0.01773306039388322 0  0.03125 0.01160380747126437 0  0.06875000000000001 0.01154265873015873 0  0.07625000000000001 0.01154065860215054 0  0.01625 0.01153997817696946 0  0.068125 0.018125 0  0.05437500000000001 0.015625 0  0.066875 0.015625 0  0.07039794950204951 0.01494384850614853 0  0.05687500000000001 0.018125 0  0.006875 0.015625 0  0.008749999999999999 0.01833333333333333 0  0.010625 0.015625 0  0.05625 0.01416666666666667 0  0.05812500000000001 0.015625 0  0.0449088595298192 0.01494528408816316 0  0 0.016875 0  0 0.013125 0  0.04962452342047931 0.01478673066448802 0  0.0153754765795207 0.01521326933551198 0  0.0771774565913315 0.01322498191305479 0  0.01857756431135545 0.01840228599899994 0  0.04642243568864456 0.01159771400100006 0  0.08125000000000002 0.01155637254901961 0  0.08317650804863432 0.0118234919513657 0  0.08288217288011697 0.01511353252923977 0  0.02837253504384828 0.0117177464035174 0  0.03896057962520807 0.01831163685754031 0  0.01125 0.0114244162490927 0  0.00935910490099115 0.0119067901980177 0  0.02946078431372549 0.01495404411764706 0  0.02875 0.0185829434466942 0  0.002968749999999999 0.0225 0  0.064375 0.016875 0  0.00296875 0.0075 0  0 0.001875 0  0 0.005625 0  0 0.009375 0  0 0.020625 0  0 0.024375 0  0 0.028125 0  0.06062500000000001 0.01812500000000001 0  0.008303571428571429 0.01446428571428572 0  0.01375 0.01865917058160413 0  0.05137790313978056 0.01143372888932909 0  0.04125000000000001 0.01131513063942604 0  0.04101690263896279 0.01844430285842771 0  0.02399563533148224 0.01844349395710867 0  0.08125000000000002 0.01868815426145731 0  0.05354684380692146 0.01145463537600848 0  0.01699195823639423 0.01315138909884649 0  0.07598357371794873 0.015 0  0.04098357371794872 0.015 0  0.003744047619047619 0.00375 0  0.003344630281690141 0.02580853873239437 0  0.04625 0.0187354532243972 0  0.06388392857142858 0.01138392857142858 0  0.06375 0.01375 0  0.05875 0.01375 0  0.06375 0.02 0  0.00622802734375 0.01372802734375 0  0.003630681818181818 0.001369318181818182 0  0.003630681818181818 0.02863068181818182 0  0.06125 0.01625 0  0.06125 0.01125 0  0.05625000000000001 0.01 0  0.05875 0.01125 0  0.06125 0.01375 0  0.08337864763241221 0.0183786476324122 0  0.05213634138653413 0.01674432930673294 0  0.04375000000000001 0.01 0  0.07424178685897437 0.01529258578431373 0  0.03924178685897436 0.01529258578431372 0  0.03410139294454583 0.01843406022904556 0  0.03089860705545417 0.01843406022904556 0  0.02094160484316717 0.01850229584291991 0  0.04375000000000001 0.02 0  0.04437042160883325 0.01820701498672512 0  0.04816311705429156 0.01600061344661149 0  0.07151224904251052 0.0114127410511319 0  0.04395528506193162 0.01639387970349481 0  0.0128750358694518 0.0167500179347259 0  0.02855808448399799 0.01642839899839741 0  0.02812690373330794 0.01340955081400569 0  0.08358500641945087 0.01351822349116885 0  0.05590277777777778 0.01173611111111111 0  0.06683110430364615 0.01164926404662283 0  0.02573206694914602 0.01842532451809762 0  0.01438126661842046 0.01166701193099454 0  0.02384283211216029 0.01526549696571563 0  0.03625 0.02 0  0.004609375000000001 0.0182421875 0  0.003398437500000001 0.01943359375 0  0.001728307845744682 0.01894718251329787 0  0.004377805359085963 0.01656966216675735 0  0.04649673309852075 0.0153889662370871 0  0.03615513600614297 0.01592654988586041 0  0.03316985071935832 0.01598763605018279 0  0.03110111603888768 0.01529816275177977 0  0.01370614113484869 0.0138804542047638 0  0.04930041102671841 0.01842260568883502 0  0.07875000000000001 0.02 0  0.0745395359848485 0.01165101111925709 0  0.03860755698543604 0.01373741558556884 0  0.02605038706571737 0.01573944002207753 0  0.07559826163500957 0.01841729376139847 0  0.04437500000000001 0.01149157931286774 0  0.06874116707361365 0.01454618473032123 0  0.003761917372881356 0.0239307468220339 0  0.003984374999999999 0.01125 0  0.003768503289473684 0.01392539576480263 0  0.001796875 0.0111328125 0  0.003761917372881356 0.008930746822033899 0  0.005 0.00625 0  0.003761917372881355 0.0210692531779661 0  0.06633928571428571 0.01410714285714285 0  0.006484375 0.01125 0  0.08364120589325512 0.01657288979763549 0  0.03576267476503373 0.0184116442851204 0  0.07370875846579374 0.0137848203678562 0  0.06964285714285715 0.01758928571428571 0  0.05520833333333334 0.01833333333333333 0  0.06491071428571429 0.01839285714285714 0  0.0510098951944636 0.01559941474766356 0  0.01786087179886325 0.0115702210443714 0  0.01972197383235524 0.01160576093166696 0  0.01804697593127788 0.01433503795474974 0  0.001644074528704677 0.01642892723865279 0  0.00125 0.03 0  0.001497685185185185 0.001267746913580247 0  0.07315451164202422 0.01643443118912983 0  0.001233906745910645 0.0140625 0  0.01162635071030191 0.01362229857939618 0  0.01528023503083844 0.01845923557506155 0  0.06625 0.02 0  0.07695012019230771 0.01624387078484555 0  0.03139091092855769 0.01320776147621796 0  0.03857339107781042 0.01675295051810485 0  0.001754993120977522 0.02590789105493891 0  0.002288757784711197 0.00412546923654445 0  0.07914382119690884 0.01404430049871201 0  0.001391810103286306 0.01257390899021902 0  0.0419501201923077 0.01614675005432421 0  0.001484375 0.007018229166666667 0  0.001484375 0.02201822916666666 0  0.048
[...]
<PointData  Vectors="velocity"> 
<DataArray  type="Float64"  Name="velocity"  NumberOfComponents="3" format="ascii">1.0880768369197504e-06 8.4131672442306088e-21 0.0000000000000000e+00  2.2867025491665310e-20 -2.5328251327363142e-20 0.0000000000000000e+00  1.0081263715490052e-18 -5.3366992312063462e-05 0.0000000000000000e+00  -1.1683926152311553e-18 -5.3366992312063374e-05 0.0000000000000000e+00  -1.1166938269465920e-18 5.3366992312063422e-05 0.0000000000000000e+00  1.0701649174904844e-18 5.3366992312063347e-05 0.0000000000000000e+00  2.1487174840308102e-20 2.0951169622211656e-20 0.0000000000000000e+00  1.1174835003778222e-06 -8.0771235535488970e-21 0.0000000000000000e+00  2.4497585063987417e-21 -2.9359219213283893e-22 0.0000000000000000e+00  -2.8657528700676559e-22 2.0177629493723982e-20 0.0000000000000000e+00  1.1654114978023444e-22 -2.2672974402534869e-20 0.0000000000000000e+00  2.0952923544557397e-20 -7.2516350189672350e-23 0.0000000000000000e+00  1.8732699789748794e-20 1.0423944380203048e-22 0.0000000000000000e+00  2.1830170148508120e-20 6.4910137451837354e-23 0.0000000000000000e+00  1.7729438386427691e-20 -6.6412544335268156e-23 0.0000000000000000e+00  1.9554430050776168e-20 6.4475082282675115e-23 0.0000000000000000e+00  2.0486068752247099e-20 3.1711321083438578e-23 0.0000000000000000e+00  1.6234065970085299e-20 -3.6522953349196900e-23 0.0000000000000000e+00  2.3541800666489010e-20 -2.8518782823603307e-23 0.0000000000000000e+00  2.0450887298260460e-20 1.2098869127559884e-22 0.0000000000000000e+00  1.9103886212818312e-20 7.5855983827712973e-23 0.0000000000000000e+00  1.6819265743721402e-20 -4.5990179767988208e-23 0.0000000000000000e+00  1.7769309850730304e-20 -4.1979011431961278e-23 0.0000000000000000e+00  1.9646642846404632e-20 -2.2445723669932581e-22 0.0000000000000000e+00  1.9182884587072409e-20 8.3543736443660039e-23 0.0000000000000000e+00  1.8426236169250130e-20 2.8337592533910755e-23 0.0000000000000000e+00  2.1773204494432005e-20 -8.0861082498852894e-23 0.0000000000000000e+00  1.9337242346043516e-20 6.4904060774305778e-23 0.0000000000000000e+00  2.1356551964909724e-20 7.6302467481337140e-24 0.0000000000000000e+00  1.6082675708415756e-20 -3.7828493097664208e-23 0.0000000000000000e+00  1.9092449578765934e-20 6.7201045341638880e-23 0.0000000000000000e+00  2.0087780811531152e-20 1.1344755729403888e-22 0.0000000000000000e+00  1.8803323333337993e-20 -3.7078677149414989e-23 0.0000000000000000e+00  2.7760992828079150e-06 -4.0589266901649309e-10 0.0000000000000000e+00  2.6662421996715051e-06 5.7182329977533630e-24 0.0000000000000000e+00  1.7372636933940770e-20 1.0963830850835600e-23 0.0000000000000000e+00  2.7760481796250380e-06 9.3588066126524587e-10 0.0000000000000000e+00  1.9722101050346610e-20 -1.9042044413031131e-22 0.0000000000000000e+00  2.7737372791525477e-06 -1.3502416819810479e-09 0.0000000000000000e+00  2.7732076178576484e-06 -1.5102661873228471e-10 0.0000000000000000e+00  1.8451516099498783e-20 8.4204447344091879e-24 0.0000000000000000e+00  2.0695324561044752e-20 -3.8629465287504008e-22 0.0000000000000000e+00  2.7735653484678706e-06 -7.2698859486568664e-11 0.0000000000000000e+00  2.7677806908281590e-06 -1.0836915807235027e-08 0.0000000000000000e+00  1.7502833876302197e-20 -7.5294034179108546e-23 0.0000000000000000e+00  1.9408688357355408e-20 3.6073727968525319e-22 0.0000000000000000e+00  2.7729232753700352e-06 8.1205444703240513e-11 0.0000000000000000e+00  2.7757343166639810e-06 -2.7067123829506526e-10 0.0000000000000000e+00  2.7749859026399550e-06 -2.3351436143055219e-10 0.0000000000000000e+00  -1.3932910814710096e-21 2.4482114717276309e-20 0.0000000000000000e+00  2.0969659500398626e-06 -1.1020181296654172e-07 0.0000000000000000e+00  2.7724881815184311e-06 6.7452251616498204e-10 0.0000000000000000e+00  2.7717656726668329e-06 1.4269034866860993e-10 0.0000000000000000e+00  -2.2585990689459552e-21 -2.9396769058071276e-20 0.0000000000000000e+00  1.8094575899597646e-20 3.6918690364343693e-23 0.0000000000000000e+00  2.1172196616722457e-20 2.4930221753214639e-22 0.0000000000000000e+00  2.7738002812813290e-06 -1.0005746753736141e-09 0.0000000000000000e+00  2.7746798992036707e-06 7.3376307065661606e-10 0.0000000000000000e+00  2.7750066876700021e-06 -7.0802768204627897e-10 0.0000000000000000e+00  2.7324426021568269e-06 -8.8499315282855464e-08 0.0000000000000000e+00  2.7730333722694970e-06 -2.0860677233588572e-09 0.0000000000000000e+00  -1.2740723052847695e-20 3.5220793941915232e-21 0.0000000000000000e+00  1.0981458060224348e-21 -1.1217541523408324e-20 0.0000000000000000e+00  1.4938933290822440e-21 1.2095136351123710e-20 0.0000000000000000e+00  -1.4944424392029306e-20 3.7897344152036042e-21 0.0000000000000000e+00  2.7462886781497394e-06 -2.6529053606000996e-08 0.0000000000000000e+00  1.6144614885662136e-20 -5.3578444196491963e-23 0.0000000000000000e+00  2.7347428308298593e-06 1.5725937361576926e-07 0.0000000000000000e+00  2.7698371547563200e-06 7.6914238684560406e-11 0.0000000000000000e+00  2.7710763049273199e-06 2.3460416400787346e-10 0.0000000000000000e+00  2.7735592064210546e-06 -1.1898146741862996e-09 0.0000000000000000e+00  2.7432955888729540e-06 5.0727243467300033e-08 0.0000000000000000e+00  2.7732540451755703e-06 -5.6206453206805404e-10 0.0000000000000000e+00  1.8940112479057934e-20 -3.2265493282474285e-24 0.0000000000000000e+00  2.7710179965948851e-06 -5.5167362060856354e-11 0.0000000000000000e+00  2.3446676620814297e-20 3.1852710782420124e-22 0.0000000000000000e+00  2.7757300787643591e-06 -2.1149089795422247e-09 0.0000000000000000e+00  1.3264880144966362e-06 1.0811095002643502e-06 0.0000000000000000e+00  -6.3494973000779602e-20 -5.3366992312063638e-05 0.0000000000000000e+00  -8.9409239856239534e-20 5.3366992312063666e-05 0.0000000000000000e+00  1.3741477099219022e-06 -1.3523459832070972e-06 0.0000000000000000e+00  2.7699285096599406e-06 -3.9189832007396259e-09 0.0000000000000000e+00  2.7723606178027900e-06 2.4919048223641761e-09 0.0000000000000000e+00  1.8192199088208474e-20 1.6378138685549066e-22 0.0000000000000000e+00  2.7721223090542572e-06 -8.5513158766178910e-10 0.0000000000000000e+00  1.9354625970236180e-20 1.2699597601613338e-22 0.0000000000000000e+00  2.7726572615724469e-06 -8.8132386545753496e-10 0.0000000000000000e+00  2.3276092522681325e-20 4.4482445150682141e-23 0.0000000000000000e+00  1.8100611300274059e-20 -1.7444325665480211e-24 0.0000000000000000e+00  1.9711791382325674e-20 1.0497493655535510e-22 0.0000000000000000e+00  2.7735524732490140e-06 8.5810493181502597e-10 0.0000000000000000e+00  1.8039902981189006e-20 6.9307017524437437e-23 0.0000000000000000e+00  1.9767259890624115e-20 5.3206662888135360e-23 0.0000000000000000e+00  2.7718052369278499e-06 2.1140064358727043e-10 0.0000000000000000e+00  2.7745044293266711e-06 4.4188841891514669e-10 0.0000000000000000e+00  2.0076122039239666e-20 1.2924199315808846e-23 0.0000000000000000e+00  2.7739731515884581e-06 1.9034001804952320e-09 0.0000000000000000e+00  2.0969874411325119e-20 2.2928154680133394e-22 0.0000000000000000e+00  2.7752562497396338e-06 -3.5228029972263555e-09 0.0000000000000000e+00  1.7582481536966494e-20 5.8702195302372105e-24 0.0000000000000000e+00  2.7694069806325257e-06 1.8666403072900848e-09 0.0000000000000000e+00  1.9719419266223946e-20 7.3360934770178371e-25 0.0000000000000000e+00  1.9044170626391431e-20 1.7660722709658123e-22 0.0000000000000000e+00  1.9407335753046178e-20 3.4211323707983032e-22 0.0000000000000000e+00  2.2048038224019744e-20 -1.3026222199291894e-22 0.0000000000000000e+00  2.7741466190316427e-06 2.1015500787485700e-09 0.0000000000000000e+00  2.7747950666486182e-06 3.2805075276852188e-09 0.0000000000000000e+00  2.7739858405049484e-06 3.4216708914147413e-10 0.0000000000000000e+00  -5.8391938633036418e-07 -3.0499489793851181e-06 0.0000000000000000e+00  4.0561997843506519e-21 -4.0877980309048270e-20 0.0000000000000000e+00  2.7839861840226372e-06 -2.3622094386417679e-08 0.0000000000000000e+00  2.7779709642669954e-06 -7.7780539454755421e-09 0.0000000000000000e+00  2.7409924885570571e-06 6.6417277932137359e-09 0.0000000000000000e+00  2.7673723501383838e-06 -2.9713133419960172e-09 0.0000000000000000e+00  4.6512502267699667e-07 2.4763504128434291e-06 0.0000000000000000e+00  2.7697882460775002e-06 -4.9665725912111953e-12 0.0000000000000000e+00  2.7756754223255969e-06 -2.4195327303226429e-12 0.0000000000000000e+00  7.7595975726912573e-21 2.3298143335462029e-20 0.0000000000000000e+00  -5.1461309674575161e-07 2.6322194982048898e-06 0.0000000000000000e+00  2.7694032216393132e-06 -1.8979451662230989e-09 0.0000000000000000e+00  4.6350874053241810e-07 -2.8577689000528068e-06 0.0000000000000000e+00  2.7741765673408053e-06 -4.6208353181556294e-10 0.0000000000000000e+00  1.8251358297653491e-20 -1.4567227276349315e-22 0.0000000000000000e+00  2.7687884333097895e-06 -8.4542184802044820e-09 0.0000000000000000e+00  2.7714470555245366e-06 1.4794033247102986e-11 0.0000000000000000e+00  2.7702269267349491e-06 1.2786682919353433e-08 0.0000000000000000e+00  2.7748598483816044e-06 -6.1767248785734064e-10 0.0000000000000000e+00  2.7736626053256130e-06 -3.2762764123029905e-09 0.0000000000000000e+00  2.7693212747852772e-06 -5.1113238366000078e-07 0.0000000000000000e+00  2.0271166860968744e-20 -2.8024245396799624e-22 0.0000000000000000e+00  2.7686187953205394e-06 -9.8892399291040699e-10 0.0000000000000000e+00  2.4845582456538246e-22 -2.6787302011645695e-20 0.0000000000000000e+00  2.1266884703708926e-22 2.2591887519938050e-20 0.0000000000000000e+00  -6.3872085388195440e-06 -6.9806997061019670e-06 0.0000000000000000e+00  -5.1915001383516538e-06 5.7304735110691575e-06 0.0000000000000000e+00  1.8551783722179166e-20 5.6439178477229260e-24 0.0000000000000000e+00  2.1736155747499370e-20 3.1880324831143891e-22 0.0000000000000000e+00  1.7513770739778257e-20 3.4408869864111443e-23 0.0000000000000000e+00  2.7687494275774428e-06 3.3753416471526278e-09 0.0000000000000000e+00  2.7699076018358897e-06 2.0356210904352055e-09 0.0000000000000000e+00  2.5197573293597316e-06 -6.8272741320033497e-22 0.0000000000000000e+00  1.8364154057992566e-20 -6.8546755598409757e-22 0.0000000000000000e+00  2.7698538370968088e-06 7.7774153199381933e-10 0.0000000000000000e+00  2.0674610451835816e-20 1.3815391774392997e-22 0.0000000000000000e+00  1.9396013748112587e-20 -4.0444312475212521e-23 0.0000000000000000e+00  2.7725822324883313e-06 -3.5380216718716349e-10 0.0000000000000000e+00  2.7755923689032340e-06 2.9746285105429132e-10 0.0000000000000000e+00  2.5168795629631736e-06 8.1619585211210496e-22 0.0000000000000000e+00  2.0323571582580719e-20 -2.4985387194229359e-22 0.0000000000000000e+00  1.0314729974706585e-06 -1.0228506820746067e-07 0.0000000000000000e+00  2.0930935604317118e-20 6.6436542984907089e-22 0.0000000000000000e+00  2.2963500467453357e-20 -9.3486549883807310e-22 0.0000000000000000e+00  2.7727014270390761e-06 -1.2418509033515591e-09 0.0000000000000000e+00  2.7629916880731485e-06 -3.3801948731678892e-09 0.0000000000000000e+00  2.7763510729390395e-06 1.9061073618575358e-11 0.0000000000000000e+00  2.7711119105333587e-06 1.7487603231055901e-09 0.0000000000000000e+00  1.9806956302987078e-20 1.9918389405660019e-23 0.0000000000000000e+00  2.2740480522467223e-20 6.3577924847812700e-23 0.0000000000000000e+00  1.9341625987008697e-20 -3.7633533242620850e-22 0.0000000000000000e+00  1.7567674706542133e-20 4.0185393204747394e-22 0.0000000000000000e+00  2.7705983921779945e-06 -4.4573736784619516e-10 0.0000000000000000e+00  2.7709437269257689e-06 1.0481668050393133e-09 0.0000000000000000e+00  2.7702914761420237e-06 -9.1505218129205638e-10 0.0000000000000000e+00  2.5115796789412624e-06 7.4824437891266046e-07 0.0000000000000000e+00  2.7741449112823320e-06 -7.9751960095623529e-10 0.0000000000000000e+00  2.7696147681770171e-06 8.9625152423564784e-10 0.0000000000000000e+00  2.7734633440836375e-06 8.1283227718075061e-10 0.0000000000000000e+00  2.7580388394659923e-06 3.1008488901639806e-09 0.0000000000000000e+00  2.7722019287406987e-06 1.8270282597337837e-10 0.0000000000000000e+00  2.7634304276806918e-06 7.6206987396346566e-10 0.0000000000000000e+00  2.7698898803365369e-06 4.9294416902459774e-10 0.0000000000000000e+00  2.7580092796711648e-06 2.0210404112605794e-10 0.0000000000000000e+00  2.7730682942965587e-06 -2.6615685269091625e-09 0.0000000000000000e+00  2.7647945365973834e-06 1.6219352883238475e-09 0.0000000000000000e+00  2.7622397566733698e-06 -1.0212237783638549e-09 0.0000000000000000e+00  2.7685966329264174e-06 1.1338359283564965e-09 0.0000000000000000e+00  2.7725078272307587e-06 3.4569755111756807e-09 0.0000000000000000e+00  2.7538213791628331e-06 -3.2060560037277489e-09 0.0000000000000000e+00  2.7535836761636538e-06 2.9995252225563439e-09 0.0000000000000000e+00  2.7581008435355392e-06 -4.2808923671735214e-10 0.0000000000000000e+00  2.7524123387366715e-06 -2.0092006984010312e-09 0.0000000000000000e+00  2.7594367112751706e-06 -1.6874624712463587e-09 0.0000000000000000e+00  2.7728969069127675e-06 -7.5484493600637597e-10 0.0000000000000000e+00  2.7744886191626132e-06 -5.1240218736054643e-10 0.0000000000000000e+00  2.7757061144561055e-06 6.5105380602134527e-10 0.0000000000000000e+00  2.7622508961946486e-06 -2.6163789728097896e-09 0.0000000000000000e+00  2.5422857116756580e-06 -1.5627164013651675e-07 0.0000000000000000e+00  2.8398612399132093e-06 -8.4391403458994274e-08 0.0000000000000000e+00  2.7565380915445105e-06 -2.7129886843720472e-08 0.0000000000000000e+00  2.7738973208199675e-06 -8.4601390654188522e-10 0.0000000000000000e+00  2.7753742461572183e-06 -1.8627554708117229e-09 0.0000000000000000e+00  2.7754461124440279e-06 -4.3972785052944629e-10 0.0000000000000000e+00  1.8485552093553530e-21 -6.9391918628108643e-21 0.0000000000000000e+00  2.4775392329075409e-21 5.8717621330670339e-21 0.0000000000000000e+00  2.7739644252981514e-06 1.3355433822853192e-09 0.0000000000000000e+00  2.7733649816542418e-06 -4.4439999383076208e-09 0.0000000000000000e+00  2.7758742762587015e-06 5.4015730385823631e-10 0.0000000000000000e+00  2.7544318693119484e-06 1.2293680641566890e-09 0.0000000000000000e+00  2.7597748319111458e-06 1.4862550899048821e-09 0.0000000000000000e+00  2.7749320412571630e-06 -3.7299802557796044e-08 0.0000000000000000e+00  2.7397415644056117e-06 -1.7219445900342994e-07 0.0000000000000000e+00  2.7031537661489207e-06 2.9593904349192308e-09 0.0000000000000000e+00  2.7559687483308279e-06 2.4048038640601135e-09 0.0000000000000000e+00  2.7566466579090393e-06 -2.3710695852644906e-10 0.0000000000000000e+00  2.6492403361090349e-06 1.1258300611076547e-09 0.0000000000000000e+00  2.7640671428737216e-06 3.6267928361085905e-08 0.0000000000000000e+00  2.7732894989952214e-06 -3.8668813089735141e-10 0.0000000000000000e+00  2.7460165516413899e-06 3.2579173238344453e-09 0.0000000000000000e+00  2.1179368306862460e-08 -3.2666347877020047e-06 0.0000000000000000e+00  2.7737641955520498e-06 1.7139260663233618e-09 0.0000000000000000e+00  3.0900552079154034e-08 2.8265954466585147e-06 0.0000000000000000e+00  -1.1792656290324033e-19 -1.1850252789588339e-19 0.0000000000000000e+00  -2.3259748719541416e-21 1.6111630820365273e-20 0.0000000000000000e+00  1.0834890288525218e-21 1.8820314509879510e-20 0.0000000000000000e+00  1.0195217402840535e-21 -1.8938671798636988e-20 0.0000000000000000e+00  -2.2732659182517214e-21 -2.0056700444460902e-20 0.0000000000000000e+00  -1.3211527568049820e-19 1.0349699633689938e-19 0.0000000000000000e+00  2.7645377873691254e-06 -1.9199435192165159e-09 0.0000000000000000e+00  2.6663670712965777e-06 -1.9639002585682477e-09 0.0000000000000000e+00  2.6667663821635124e-06 -6.4244979311541895e-09 0.0000000000000000e+00  2.6638495820561281e-06 9.3974400535636456e-10 0.0000000000000000e+00  2.6652142255216797e-06 -3.6597301249416058e-10 0.0000000000000000e+00  2.6629636612684683e-06 2.9320608788048854e-09 0.0000000000000000e+00  2.7502383154049920e-06 3.6420578833731410e-09 0.0000000000000000e+00  2.7621139900222350e-06 4.0200576055470528e-08 0.0000000000000000e+00  2.7511201319768332e-06 -4.8053764042777057e-10 0.0000000000000000e+00  2.7703045899690561e-06 -1.5913838451068918e-09 0.0000000000000000e+00  2.7743836389869507e-06 7.8023678619997068e-10 0.0000000000000000e+00  2.7752831187333098e-06 -6.1075810888848301e-10 0.0000000000000000e+00  -5.0423391199060954e-07 4.1016212688327980e-06 0.0000000000000000e+00  -1.0301328584082520e-06 -4.2737472364640945e-06 0.0000000000000000e+00  2.6716152125364155e-06 -9.0935842251431176e-09 0.0000000000000000e+00  2.7454958228972790e-06 3.4329650125416608e-09 0.0000000000000000e+00  2.7755919931197576e-06 -5.5732042235231627e-10 0.0000000000000000e+00  2.7749950269950105e-06 -6.3369163578412716e-10 0.0000000000000000e+00  1.8753498443449035e-20 2.2683510176554853e-22 0.0000000000000000e+00  2.4543866533414520e-06 1.7824547888541951e-07 0.0000000000000000e+00  1.1410783502347769e-05 1.3366778543721024e-05 0.0000000000000000e+00  1.1594391170290188e-05 -1.4262091673652717e-05 0.0000000000000000e+00  2.7766197573563317e-06 -4.4624254690241725e-10 0.0000000000000000e+00  2.6438762899318566e-06 2.6644102464522980e-09 0.0000000000000000e+00  1.8541433183872510e-20 5.7421556375964284e-23 0.0000000000000000e+00  2.6558386384712390e-06 -4.2710970390321767e-09 0.0000000000000000e+00  2.7766455491128749e-06 4.8987855212006889e-10 0.0000000000000000e+00  2.7387498618252571e-06 2.2041239169271367e-07 0.0000000000000000e+00  2.7718778330400973e-06 1.1355348156946384e-10 0.0000000000000000e+00  2.0058363010960575e-20 -1.9538988448845624e-22 0.0000000000000000e+00  2.7751731640941831e-06 1.1143158705016172e-09 0.0000000000000000e+00  2.7741080143907984e-06 -1.2370820765644782e-09 0.0000000000000000e+00  2.7512683702763056e-06 -9.3815117397536256e-10 0.0000000000000000e+00  2.7587130715757800e-06 5.2596189697172290e-10 0.0000000000000000e+00  2.7518870943404711e-06 -2.0871657129928003e-09 0.0000000000000000e+00  2.0200335262469437e-20 1.6377018486523320e-22 0.0000000000000000e+00  2.7603330660424867e-06 -8.0260664712629126e-10 0.0000000000000000e+00  2.7754616302022502e-06 2.2096294031937098e-09 0.0000000000000000e+00  2.6698881622962338e-06 6.2659534820743995e-09 0.0000000000000000e+00  2.7750229477275721e-06 -1.2002593809555579e-10 0.0000000000000000e+00  2.7754316660931931e-06 -1.3772603140374561e-08 0.0000000000000000e+00  2.7729530950723821e-06 3.8325142600737316e-10 0.0000000000000000e+00  2.7733069520714629e-06 -6.5184169081774928e-10 0.0000000000000000e+00  2.6766857467205640e-06 -4.1931202977153498e-08 0.0000000000000000e+00  2.7585099918292197e-06 1.6826422045072960e-09 0.0000000000000000e+00  2.7574281937004464e-06 -2.4679673065616281e-09 0.0000000000000000e+00  2.7546719181934205e-06 -1.7847443236145526e-09 0.0000000000000000e+00  2.7594776927321363e-06 -4.4999589150370731e-09 0.0000000000000000e+00  2.7727698594231285e-06 8.5618368003801824e-10 0.0000000000000000e+00  2.1207451051087839e-20 -2.4178308337471542e-22 0.0000000000000000e+00  2.5675759453529041e-06 -1.4852407731146457e-06 0.0000000000000000e+00  1.5163809309665845e-06 -2.7957615231356060e-06 0.0000000000000000e+00  6.4654035998153548e-07 -2.1015753639838030e-06 0.0000000000000000e+00  1.9842264091261918e-06 -7.1147676969705623e-07 0.0000000000000000e+00  2.7758741582666820e-06 1.4478760188862015e-10 0.0000000000000000e+00  2.7736002976943660e-06 -1.4636536943196657e-09 0.0000000000000000e+00  2.7732572032864403e-06 2.3564707628483535e-10 0.0000000000000000e+00  2.7731949901160221e-06 -5.3041577356146903e-10 0.0000000000000000e+00  2.7695281968021399e-06 -5.9659829047917942e-09 0.0000000000000000e+00  2.7569388936916335e-06 6.1423862290486189e-09 0.0000000000000000e+00  2.1231455243065179e-20 4.5237475659940012e-23 0.0000000000000000e+00  2.7549618472225584e-06 3.8459469415652077e-09 0.0000000000000000e+00  2.7732896043043586e-06 -8.2146920283363097e-10 0.0000000000000000e+00  2.7732092745394325e-06 1.2616080738082840e-11 0.0000000000000000e+00  2.7543209501060875e-06 2.4721435152514478e-09 0.0000000