<?xml version="1.0"?>
<VTKFile type="UnstructuredGrid"  version="0.1"  >
<UnstructuredGrid>
<Piece  NumberOfPoints="1079" NumberOfCells="1944">
<Points>
<DataArray  type="Float64"  NumberOfComponents="3"  format="ascii">0.08500000000000001 0.02 0  0.005 0.02 0  0.005 0.03 0  0 0.03 0  0 0 0  0.005 0 0  0.005 0.01 0  0.08500000000000001 0.01 0  0 0.015 0  0 0.0075 0  0 0.0225 0  0.04500000000000001 0.02 0  0.04500000000000001 0.01 0  0.025 0.01 0  0.025 0.02 0  0.065 0.02 0  0.065 0.01 0  0.035 0.02 0  0.035 0.01 0  0.07500000000000001 0.02 0  0.07500000000000001 0.01 0  0.015 0.02 0  0.015 0.01 0  0.05500000000000001 0.01 0  0.05500000000000001 0.02 0  0.07000000000000001 0.01 0  0.07000000000000001 0.02 0  0.05 0.01 0  0.03 0.01 0  0.03 0.02 0  0.04000000000000001 0.01 0  0.01 0.01 0  0.02 0.02 0  0.06 0.015 0  0.08500000000000001 0.015 0  0.05 0.02 0  0.07250000000000001 0.015 0  0.04000000000000001 0.02 0  0.03750000000000001 0.015 0  0.0525 0.015 0  0.02 0.01 0  0.01 0.02 0  0.0275 0.015 0  0.0125 0.015 0  0.08000000000000002 0.01 0  0.08000000000000002 0.02 0  0.0325 0.014375 0  0.04291666666666667 0.015 0  0.065 0.015 0  0.005 0.005 0  0.005 0.015 0  0.02208333333333334 0.015 0  0.07791666666666668 0.015 0  0.005 0.025 0  0.06 0.01 0  0.06 0.02 0  0.01729166666666667 0.01572916666666667 0  0.04770833333333334 0.01427083333333334 0  0.06875000000000001 0.01625 0  0.008750000000000001 0.01625 0  0.05625000000000001 0.01625 0  0 0.00375 0  0 0.01875 0  0 0.01125 0  0 0.02625 0  0.08145833333333334 0.01354166666666667 0  0.0675 0.01 0  0.0075 0.0125 0  0.0625 0.0175 0  0.0575 0.0125 0  0.0625 0.0125 0  0.08207465277777778 0.01707465277777778 0  0.06767857142857144 0.01321428571428571 0  0.0175 0.01 0  0.01875 0.01291382575757576 0  0.0475 0.02 0  0.04564168086314595 0.01679860519591141 0  0.00296875 0.0125 0  0.0025 0.03 0  0.0025 0 0  0.00296875 0.0175 0  0.01521990740740741 0.0132349537037037 0  0.0497800925925926 0.0167650462962963 0  0.0325 0.02 0  0.03474264705882353 0.01674632352941176 0  0.03750000000000001 0.02 0  0.03025735294117647 0.01674632352941176 0  0.0275 0.02 0  0.0525 0.02 0  0.0125 0.01 0  0.04020833333333334 0.01322916666666667 0  0.03750000000000001 0.01 0  0.0225 0.02 0  0.02479166666666667 0.01677083333333333 0  0.07520833333333335 0.01322916666666667 0  0.07250000000000001 0.01 0  0.07520833333333335 0.01677083333333334 0  0.07250000000000001 0.02 0  0.04020833333333334 0.01677083333333333 0  0.0225 0.01 0  0.02375 0.01262152777777778 0  0.04250000000000001 0.02 0  0.04250000000000001 0.01 0  0.07750000000000001 0.01 0  0.07750000000000001 0.02 0  0.05036151960784314 0.01294424019607843 0  0.0705560064935065 0.01284699675324675 0  0.05458333333333334 0.01291666666666666 0  0.0021875 0.024375 0  0.005 0.0275 0  0.01125 0.0175 0  0.01463848039215686 0.01705575980392157 0  0.01 0.01375 0  0.03625 0.0125 0  0.0021875 0.009375 0  0.05375000000000001 0.0175 0  0.07125000000000001 0.0175 0  0.005 0.0025 0  0.0021875 0.005625 0  0.02655220103578155 0.01234889948210923 0  0.002187499999999999 0.020625 0  0.02979166666666667 0.01302083333333333 0  0.0525 0.01 0  0.07895833333333334 0.0125 0  0.01994277885235332 0.01704213007736944 0  0.07934656179076068 0.01733823814273861 0  0.04505722114764669 0.01295786992263056 0  0.06625 0.0175 0  0.006250000000000001 0.0175 0  0.05750000000000001 0.02 0  0.05875000000000001 0.0175 0  0.005 0.0225 0  0.005 0.0075 0  0.002375 0.027375 0  0.002375 0.002625000000000001 0  0.0475 0.01 0  0.0175 0.02 0  0.0325 0.01 0  0.03375 0.0121875 0  0.04261299435028249 0.01749205508474576 0  0.08500000000000001 0.0125 0  0.08250000000000002 0.01 0  0.02121963399965531 0.01224824108143494 0  0.0675 0.02 0  0.0125 0.02 0  0.02720152243589744 0.0175 0  0.03715165441176471 0.0175 0  0.08500000000000001 0.0175 0  0.0275 0.01 0  0.0025 0.0149560546875 0  0.0075 0.01 0  0.0075 0.02 0  0.06526785714285716 0.0125 0  0.01281031447005516 0.0125 0  0.0625 0.015 0  0.06 0.0125 0  0.05750000000000001 0.01 0  0.0625 0.02 0  0.0625 0.01 0  0.08250000000000002 0.02 0  0.04260103740101855 0.01252623201412851 0  0.02240052247582197 0.01750164767101344 0  0.07293583459427785 0.01238479732953041 0  0.005234374999999999 0.012265625 0  0.03528131980640358 0.01454684009679821 0  0.0325 0.01760027210036557 0  0.02532593822924343 0.01428227733767297 0  0.08009952069819683 0.01527145502895417 0  0.01987282359856536 0.01482587683689801 0  0.04828232595121382 0.01210233572595705 0  0.01671767404878618 0.01789766427404295 0  0.05125 0.01829007549029352 0  0.05247215456215357 0.01288882122882024 0  0.07338729919678716 0.01799385040160642 0  0.03838729919678716 0.01200614959839357 0  0.07717482110586968 0.01780301674207099 0  0.04771860040890012 0.01773306039388322 0  0.03125 0.01160380747126437 0  0.06875000000000001 0.01154265873015873 0  0.07625000000000001 0.01154065860215054 0  0.01625 0.01153997817696946 0  0.068125 0.018125 0  0.05437500000000001 0.015625 0  0.066875 0.015625 0  0.07039794950204951 0.01494384850614853 0  0.05687500000000001 0.018125 0  0.006875 0.015625 0  0.008749999999999999 0.01833333333333333 0  0.010625 0.015625 0  0.05625 0.01416666666666667 0  0.05812500000000001 0.015625 0  0.0449088595298192 0.01494528408816316 0  0 0.016875 0  0 0.013125 0  0.04962452342047931 0.01478673066448802 0  0.0153754765795207 0.01521326933551198 0  0.0771774565913315 0.01322498191305479 0  0.01857756431135545 0.01840228599899994 0  0.04642243568864456 0.01159771400100006 0  0.08125000000000002 0.01155637254901961 0  0.08317650804863432 0.0118234919513657 0  0.08288217288011697 0.01511353252923977 0  0.02837253504384828 0.0117177464035174 0  0.03896057962520807 0.01831163685754031 0  0.01125 0.0114244162490927 0  0.00935910490099115 0.0119067901980177 0  0.02946078431372549 0.01495404411764706 0  0.02875 0.0185829434466942 0  0.002968749999999999 0.0225 0  0.064375 0.016875 0  0.00296875 0.0075 0  0 0.001875 0  0 0.005625 0  0 0.009375 0  0 0.020625 0  0 0.024375 0  0 0.028125 0  0.06062500000000001 0.01812500000000001 0  0.008303571428571429 0.01446428571428572 0  0.01375 0.01865917058160413 0  0.05137790313978056 0.01143372888932909 0  0.04125000000000001 0.01131513063942604 0  0.04101690263896279 0.01844430285842771 0  0.02399563533148224 0.01844349395710867 0  0.08125000000000002 0.01868815426145731 0  0.05354684380692146 0.01145463537600848 0  0.01699195823639423 0.01315138909884649 0  0.07598357371794873 0.015 0  0.04098357371794872 0.015 0  0.003744047619047619 0.00375 0  0.003344630281690141 0.02580853873239437 0  0.04625 0.0187354532243972 0  0.06388392857142858 0.01138392857142858 0  0.06375 0.01375 0  0.05875 0.01375 0  0.06375 0.02 0  0.00622802734375 0.01372802734375 0  0.003630681818181818 0.001369318181818182 0  0.003630681818181818 0.02863068181818182 0  0.06125 0.01625 0  0.06125 0.01125 0  0.05625000000000001 0.01 0  0.05875 0.01125 0  0.06125 0.01375 0  0.08337864763241221 0.0183786476324122 0  0.05213634138653413 0.01674432930673294 0  0.04375000000000001 0.01 0  0.07424178685897437 0.01529258578431373 0  0.03924178685897436 0.01529258578431372 0  0.03410139294454583 0.01843406022904556 0  0.03089860705545417 0.01843406022904556 0  0.02094160484316717 0.01850229584291991 0  0.04375000000000001 0.02 0  0.04437042160883325 0.01820701498672512 0  0.04816311705429156 0.01600061344661149 0  0.07151224904251052 0.0114127410511319 0  0.04395528506193162 0.01639387970349481 0  0.0128750358694518 0.0167500179347259 0  0.02855808448399799 0.01642839899839741 0  0.02812690373330794 0.01340955081400569 0  0.08358500641945087 0.01351822349116885 0  0.05590277777777778 0.01173611111111111 0  0.06683110430364615 0.01164926404662283 0  0.02573206694914602 0.01842532451809762 0  0.01438126661842046 0.01166701193099454 0  0.02384283211216029 0.01526549696571563 0  0.03625 0.02 0  0.004609375000000001 0.0182421875 0  0.003398437500000001 0.01943359375 0  0.001728307845744682 0.01894718251329787 0  0.004377805359085963 0.01656966216675735 0  0.04649673309852075 0.0153889662370871 0  0.03615513600614297 0.01592654988586041 0  0.03316985071935832 0.01598763605018279 0  0.03110111603888768 0.01529816275177977 0  0.01370614113484869 0.0138804542047638 0  0.04930041102671841 0.01842260568883502 0  0.07875000000000001 0.02 0  0.0745395359848485 0.01165101111925709 0  0.03860755698543604 0.01373741558556884 0  0.02605038706571737 0.01573944002207753 0  0.07559826163500957 0.01841729376139847 0  0.04437500000000001 0.01149157931286774 0  0.06874116707361365 0.01454618473032123 0  0.003761917372881356 0.0239307468220339 0  0.003984374999999999 0.01125 0  0.003768503289473684 0.01392539576480263 0  0.001796875 0.0111328125 0  0.003761917372881356 0.008930746822033899 0  0.005 0.00625 0  0.003761917372881355 0.0210692531779661 0  0.06633928571428571 0.01410714285714285 0  0.006484375 0.01125 0  0.08364120589325512 0.01657288979763549 0  0.03576267476503373 0.0184116442851204 0  0.07370875846579374 0.0137848203678562 0  0.06964285714285715 0.01758928571428571 0  0.05520833333333334 0.01833333333333333 0  0.06491071428571429 0.01839285714285714 0  0.0510098951944636 0.01559941474766356 0  0.01786087179886325 0.0115702210443714 0  0.01972197383235524 0.01160576093166696 0  0.01804697593127788 0.01433503795474974 0  0.001644074528704677 0.01642892723865279 0  0.00125 0.03 0  0.001497685185185185 0.001267746913580247 0  0.07315451164202422 0.01643443118912983 0  0.001233906745910645 0.0140625 0  0.01162635071030191 0.01362229857939618 0  0.01528023503083844 0.01845923557506155 0  0.06625 0.02 0  0.07695012019230771 0.01624387078484555 0  0.03139091092855769 0.01320776147621796 0  0.03857339107781042 0.01675295051810485 0  0.001754993120977522 0.02590789105493891 0  0.002288757784711197 0.00412546923654445 0  0.07914382119690884 0.01404430049871201 0  0.001391810103286306 0.01257390899021902 0  0.0419501201923077 0.01614675005432421 0  0.001484375 0.007018229166666667 0  0.001484375 0.02201822916666666 0  0.048
[...]
<PointData  Vectors="velocity"> 
<DataArray  type="Float64"  Name="velocity"  NumberOfComponents="3" format="ascii">2.8112976950299346e-07 2.1237121199028724e-21 0.0000000000000000e+00  5.7279437630785906e-21 -6.7124340973577237e-21 0.0000000000000000e+00  2.4815418376590898e-19 -1.3848863713938834e-05 0.0000000000000000e+00  -2.9468309322201707e-19 -1.3848863713938814e-05 0.0000000000000000e+00  -2.9726803263624557e-19 1.3848863713938815e-05 0.0000000000000000e+00  2.6754122937262109e-19 1.3848863713938805e-05 0.0000000000000000e+00  5.6013273619012480e-21 5.2667103351012491e-21 0.0000000000000000e+00  2.8872936969684565e-07 -2.1650021896110444e-21 0.0000000000000000e+00  6.3769486893369311e-22 -4.2223608277169035e-23 0.0000000000000000e+00  -7.1430596091716127e-23 5.1842834063747737e-21 0.0000000000000000e+00  2.7184272656284880e-23 -5.9714371512576901e-21 0.0000000000000000e+00  5.3848089243717794e-21 -1.9817361251665873e-23 0.0000000000000000e+00  4.6508053957781870e-21 2.8753820455737036e-23 0.0000000000000000e+00  5.2946308196008505e-21 1.6757845943448204e-23 0.0000000000000000e+00  4.5142986754335191e-21 -1.8308805113935916e-23 0.0000000000000000e+00  4.9937388570530536e-21 1.6272771563382176e-23 0.0000000000000000e+00  5.4046388092578122e-21 7.0882852301051724e-24 0.0000000000000000e+00  4.1819458827894340e-21 -9.3184678476867092e-24 0.0000000000000000e+00  6.0694826210963746e-21 -4.8519176226366251e-24 0.0000000000000000e+00  5.5214601675654050e-21 3.2969666452575847e-23 0.0000000000000000e+00  4.6025864473126627e-21 1.8840853126039099e-23 0.0000000000000000e+00  4.3788088401757446e-21 -1.0987801570184376e-23 0.0000000000000000e+00  4.2173153662766140e-21 -9.1870298459106645e-24 0.0000000000000000e+00  5.0909184018055791e-21 -6.0157563533659837e-23 0.0000000000000000e+00  4.8072424765219860e-21 2.1382587289728539e-23 0.0000000000000000e+00  4.6428311607559380e-21 7.7219939654906809e-24 0.0000000000000000e+00  5.7611581235267171e-21 -2.0021266108161273e-23 0.0000000000000000e+00  5.2236712736265553e-21 1.6882459264827343e-23 0.0000000000000000e+00  5.2848784587962579e-21 3.0520986992534857e-24 0.0000000000000000e+00  4.2316859757612000e-21 -1.2036338712893159e-23 0.0000000000000000e+00  4.8634767943797895e-21 1.6812654516937565e-23 0.0000000000000000e+00  5.0824505667729417e-21 2.9543634711989291e-23 0.0000000000000000e+00  4.6555909915438779e-21 -9.1893428637198341e-24 0.0000000000000000e+00  7.1735030136223844e-07 -1.0490140110523769e-10 0.0000000000000000e+00  6.8896623583365799e-07 1.7478696734814039e-24 0.0000000000000000e+00  4.7067973122358720e-21 3.2053535235559787e-24 0.0000000000000000e+00  7.1733710935273198e-07 2.4183294453251569e-10 0.0000000000000000e+00  5.1433009063589926e-21 -4.8436265891063534e-23 0.0000000000000000e+00  7.1673995443801338e-07 -3.4891076700445232e-10 0.0000000000000000e+00  7.1660309917360582e-07 -3.9015522560928736e-11 0.0000000000000000e+00  4.7548137641016094e-21 1.9199393665261690e-24 0.0000000000000000e+00  5.3287362642211040e-21 -1.0383484090438107e-22 0.0000000000000000e+00  7.1669553694678205e-07 -1.8897718999841478e-11 0.0000000000000000e+00  7.1520077208835739e-07 -2.8179032833191496e-09 0.0000000000000000e+00  4.4680229937395900e-21 -1.6912309401341910e-23 0.0000000000000000e+00  5.0349338558219687e-21 9.2374000663609438e-23 0.0000000000000000e+00  7.1652960908338667e-07 2.0959168306656852e-11 0.0000000000000000e+00  7.1725598514297302e-07 -6.9947551799022974e-11 0.0000000000000000e+00  7.1706262890432726e-07 -6.0338798945617676e-11 0.0000000000000000e+00  -3.8097803008972916e-22 6.2449296687361317e-21 0.0000000000000000e+00  5.4185828993896604e-07 -2.8639688362596246e-08 0.0000000000000000e+00  7.1641719218904720e-07 1.7356714098556360e-10 0.0000000000000000e+00  7.1623062970778333e-07 3.6870876115443872e-11 0.0000000000000000e+00  -5.8028067948607660e-22 -7.7020748379419162e-21 0.0000000000000000e+00  4.5842284924203859e-21 9.8607613152627387e-24 0.0000000000000000e+00  5.1893519695625725e-21 6.4755793893936892e-23 0.0000000000000000e+00  7.1675723252210077e-07 -2.6198321363948451e-10 0.0000000000000000e+00  7.1698355241424657e-07 1.8960413549815428e-10 0.0000000000000000e+00  7.1706797492940749e-07 -1.8296953019750570e-10 0.0000000000000000e+00  7.0609162802628007e-07 -2.2923518148526396e-08 0.0000000000000000e+00  7.1655803643223549e-07 -5.3901938495657769e-10 0.0000000000000000e+00  -3.2543672970194872e-21 8.8492772912868396e-22 0.0000000000000000e+00  2.8705602909869831e-22 -2.8616177355633480e-21 0.0000000000000000e+00  4.0722092253597314e-22 3.1227770192261364e-21 0.0000000000000000e+00  -3.8076105209356963e-21 1.0636282910595022e-21 0.0000000000000000e+00  7.0964774128723609e-07 -6.8546809494866633e-09 0.0000000000000000e+00  4.2926889155733011e-21 -1.3845551820103443e-23 0.0000000000000000e+00  7.0659853596464233e-07 4.0571428563561662e-08 0.0000000000000000e+00  7.1573209409103216e-07 1.9683095560128024e-11 0.0000000000000000e+00  7.1605226467642565e-07 6.0699114674104624e-11 0.0000000000000000e+00  7.1669390786525260e-07 -3.0734265553679160e-10 0.0000000000000000e+00  7.0887442404366950e-07 1.3107288130279279e-08 0.0000000000000000e+00  7.1661510734413308e-07 -1.4524915544615863e-10 0.0000000000000000e+00  4.6412094043030354e-21 -8.7505319118691375e-25 0.0000000000000000e+00  7.1603592035443551e-07 -1.5910343164799204e-11 0.0000000000000000e+00  5.5603684042351663e-21 8.3376637142092305e-23 0.0000000000000000e+00  7.1725488028920808e-07 -5.4653927937204993e-10 0.0000000000000000e+00  3.4270956442452077e-07 2.7911122339591607e-07 0.0000000000000000e+00  -1.5606224991380223e-20 -1.3848863713938881e-05 0.0000000000000000e+00  -2.3808389596500336e-20 1.3848863713938888e-05 0.0000000000000000e+00  3.5513226479509483e-07 -3.4969465722260180e-07 0.0000000000000000e+00  7.1575171535581690e-07 -1.0185889114133799e-09 0.0000000000000000e+00  7.1638428307551244e-07 6.4394180473942531e-10 0.0000000000000000e+00  4.6548145938582283e-21 4.4276257819916243e-23 0.0000000000000000e+00  7.1632265813845532e-07 -2.2094384219420083e-10 0.0000000000000000e+00  5.0953612652815306e-21 3.2599737591670677e-23 0.0000000000000000e+00  7.1646088401195823e-07 -2.2777141582469049e-10 0.0000000000000000e+00  5.1816160844929957e-21 1.0957225062659731e-23 0.0000000000000000e+00  4.9407203976498856e-21 -5.3267600415040899e-25 0.0000000000000000e+00  5.1837697348295518e-21 3.0042092830738438e-23 0.0000000000000000e+00  7.1669221720602688e-07 2.2172735090232144e-10 0.0000000000000000e+00  4.7237094828749423e-21 1.5453231201036780e-23 0.0000000000000000e+00  5.3409431561200462e-21 1.2883597914936211e-23 0.0000000000000000e+00  7.1624087260824467e-07 5.4408083317438807e-11 0.0000000000000000e+00  7.1693821891617382e-07 1.1415967184289316e-10 0.0000000000000000e+00  4.9754543533299958e-21 4.1584975776570218e-24 0.0000000000000000e+00  7.1680088307541387e-07 4.9185263849872528e-10 0.0000000000000000e+00  5.5461147256749611e-21 5.8670845972205099e-23 0.0000000000000000e+00  7.1713248207189581e-07 -9.1025984056123194e-10 0.0000000000000000e+00  4.6398215166994910e-21 2.1646434517749715e-24 0.0000000000000000e+00  7.1562063011485487e-07 4.8212301232668148e-10 0.0000000000000000e+00  5.4228402982115853e-21 0.0000000000000000e+00 0.0000000000000000e+00  4.7540075124481914e-21 4.6306905806675540e-23 0.0000000000000000e+00  5.0584821080355113e-21 8.5378397093224226e-23 0.0000000000000000e+00  5.5754875931182365e-21 -3.4786873528724466e-23 0.0000000000000000e+00  7.1684578745456323e-07 5.4308294943980088e-10 0.0000000000000000e+00  7.1701328490515199e-07 8.4770158956214180e-10 0.0000000000000000e+00  7.1680421079620746e-07 8.8367140615407801e-11 0.0000000000000000e+00  -1.5147856514922972e-07 -7.8834038552858657e-07 0.0000000000000000e+00  9.3259850743117672e-22 -1.1064297938503211e-20 0.0000000000000000e+00  7.1940850799727033e-07 -6.1227003290810168e-09 0.0000000000000000e+00  7.1783937663795847e-07 -2.0164923290095461e-09 0.0000000000000000e+00  7.0826171120307062e-07 1.6800137271562554e-09 0.0000000000000000e+00  7.1509498290610836e-07 -7.6770669515277756e-10 0.0000000000000000e+00  1.2012679496676706e-07 6.3954470607734442e-07 0.0000000000000000e+00  7.1571963148972675e-07 -1.3027899693053158e-12 0.0000000000000000e+00  7.1724080699404154e-07 -8.3546717668096879e-13 0.0000000000000000e+00  2.0741443013038506e-21 6.0664185512187259e-21 0.0000000000000000e+00  -1.3341231791556685e-07 6.7971303240022230e-07 0.0000000000000000e+00  7.1562004798887990e-07 -4.9034791353967300e-10 0.0000000000000000e+00  1.1976180104680249e-07 -7.3879038787114097e-07 0.0000000000000000e+00  7.1685344875201584e-07 -1.1955766188815852e-10 0.0000000000000000e+00  4.4527264331190334e-21 -3.9341162652662977e-23 0.0000000000000000e+00  7.1546064462931153e-07 -2.1841086321361734e-09 0.0000000000000000e+00  7.1614905116162020e-07 2.7181971414127297e-12 0.0000000000000000e+00  7.1583292363214343e-07 3.3038272350041073e-09 0.0000000000000000e+00  7.1703004549691337e-07 -1.5965436939612061e-10 0.0000000000000000e+00  7.1672072621306972e-07 -8.4655029393934353e-10 0.0000000000000000e+00  7.1568265473499839e-07 -1.3218848275487840e-07 0.0000000000000000e+00  5.3404036025445149e-21 -6.9907580580183682e-23 0.0000000000000000e+00  7.1541757276757963e-07 -2.5584311896561112e-10 0.0000000000000000e+00  6.0575163516595750e-23 -6.6665231250701955e-21 0.0000000000000000e+00  5.0814276660749985e-23 6.0141978298008346e-21 0.0000000000000000e+00  -1.6568939448659315e-06 -1.8057350667084817e-06 0.0000000000000000e+00  -1.3459514194225559e-06 1.4814887069829771e-06 0.0000000000000000e+00  4.6957396493054741e-21 1.6649557650782632e-24 0.0000000000000000e+00  5.6140285957194964e-21 7.9029929821312086e-23 0.0000000000000000e+00  4.7940912979278033e-21 8.8407475848531672e-24 0.0000000000000000e+00  7.1545118535687153e-07 8.7224995681526964e-10 0.0000000000000000e+00  7.1575052498182753e-07 5.2584218395014974e-10 0.0000000000000000e+00  6.5111151313762660e-07 -1.7141282645434527e-22 0.0000000000000000e+00  5.0055072692792239e-21 -1.6364541579998259e-22 0.0000000000000000e+00  7.1573578649590411e-07 2.0042877014326512e-10 0.0000000000000000e+00  5.1775999659879994e-21 3.1160661847225948e-23 0.0000000000000000e+00  4.7282097571021788e-21 -9.8414493689683797e-24 0.0000000000000000e+00  7.1644164617634148e-07 -9.1547454878193836e-11 0.0000000000000000e+00  7.1721925767433306e-07 7.6952291245649766e-11 0.0000000000000000e+00  6.5036781530306890e-07 2.1951955479790851e-22 0.0000000000000000e+00  4.9985060331498745e-21 -6.2608781207931866e-23 0.0000000000000000e+00  2.6653325281230426e-07 -2.6659168858013090e-08 0.0000000000000000e+00  5.2738286699359233e-21 1.7122820356934815e-22 0.0000000000000000e+00  5.8858746744017670e-21 -2.2861877240798243e-22 0.0000000000000000e+00  7.1647232396298680e-07 -3.2083106120723359e-10 0.0000000000000000e+00  7.1395173725035998e-07 -8.8371621657494487e-10 0.0000000000000000e+00  7.1741538826668803e-07 4.9308892847264676e-12 0.0000000000000000e+00  7.1606149138149218e-07 4.5202151021454104e-10 0.0000000000000000e+00  5.1863376094844228e-21 5.8145650673725299e-24 0.0000000000000000e+00  5.7080440021112290e-21 1.4741571659255163e-23 0.0000000000000000e+00  4.8153054997679855e-21 -9.3804652592882839e-23 0.0000000000000000e+00  4.6264577173513479e-21 8.2837596196098082e-23 0.0000000000000000e+00  7.1592915510302587e-07 -1.1507207458144072e-10 0.0000000000000000e+00  7.1601859884194495e-07 2.7033609088811521e-10 0.0000000000000000e+00  7.1584973067660999e-07 -2.3631419191150095e-10 0.0000000000000000e+00  6.4888616523929554e-07 1.9319033003354539e-07 0.0000000000000000e+00  7.1684529084479131e-07 -2.0607758937348220e-10 0.0000000000000000e+00  7.1567456222975200e-07 2.3145912740346180e-10 0.0000000000000000e+00  7.1666911372318703e-07 2.0981597384704003e-10 0.0000000000000000e+00  7.1268382775879378e-07 8.0122951253054849e-10 0.0000000000000000e+00  7.1634318455132133e-07 4.5708406461422039e-11 0.0000000000000000e+00  7.1407654348389691e-07 1.9699011448026774e-10 0.0000000000000000e+00  7.1574927262405956e-07 1.2467097213403517e-10 0.0000000000000000e+00  7.1267569708463406e-07 5.2157248332183842e-11 0.0000000000000000e+00  7.1656707479536652e-07 -6.8776781063132230e-10 0.0000000000000000e+00  7.1442901191597199e-07 4.1887488359315465e-10 0.0000000000000000e+00  7.1376887746220197e-07 -2.6383045871169446e-10 0.0000000000000000e+00  7.1541147791289133e-07 2.9277570746186098e-10 0.0000000000000000e+00  7.1642219978125320e-07 8.9306064674467311e-10 0.0000000000000000e+00  7.1159353986850370e-07 -8.2845588694191704e-10 0.0000000000000000e+00  7.1153237254294758e-07 7.7516988547539748e-10 0.0000000000000000e+00  7.1269955979046317e-07 -1.1075437112047472e-10 0.0000000000000000e+00  7.1122498747061836e-07 -5.2113952831872583e-10 0.0000000000000000e+00  7.1304454043109751e-07 -4.3617810515170583e-10 0.0000000000000000e+00  7.1652280150424301e-07 -1.9503690651848091e-10 0.0000000000000000e+00  7.1693410540101591e-07 -1.3239625663817712e-10 0.0000000000000000e+00  7.1724871069174552e-07 1.6822135742291650e-10 0.0000000000000000e+00  7.1377209058731192e-07 -6.7602908575595131e-10 0.0000000000000000e+00  6.5694859062957575e-07 -4.0485884579015628e-08 0.0000000000000000e+00  7.3388232580006806e-07 -2.1837346819795961e-08 0.0000000000000000e+00  7.1230168004730128e-07 -7.0427718552189669e-09 0.0000000000000000e+00  7.1678130573230785e-07 -2.1860349370187484e-10 0.0000000000000000e+00  7.1716293911035994e-07 -4.8134120830161904e-10 0.0000000000000000e+00  7.1718152724855600e-07 -1.1363757864768046e-10 0.0000000000000000e+00  4.5502897461054850e-22 -1.9243933717904445e-21 0.0000000000000000e+00  6.0962090003732496e-22 1.5320652735251868e-21 0.0000000000000000e+00  7.1679867783367940e-07 3.4511415369964288e-10 0.0000000000000000e+00  7.1664422762358722e-07 -1.1549691585442884e-09 0.0000000000000000e+00  7.1729223595255006e-07 1.3965092759197199e-10 0.0000000000000000e+00  7.1175359876973466e-07 3.1674878862907542e-10 0.0000000000000000e+00  7.1313193781063765e-07 3.8423832266947228e-10 0.0000000000000000e+00  7.1704874507976486e-07 -9.6376396015550078e-09 0.0000000000000000e+00  7.0795690014165565e-07 -4.4494471830322723e-08 0.0000000000000000e+00  6.9850250855635893e-07 7.6463128596327438e-10 0.0000000000000000e+00  7.1214821206299914e-07 6.2142338107813622e-10 0.0000000000000000e+00  7.1232363816416052e-07 -6.1132049329226530e-11 0.0000000000000000e+00  6.8454597040294095e-07 2.8245322445782905e-10 0.0000000000000000e+00  7.1419762240261374e-07 9.3467602916695027e-09 0.0000000000000000e+00  7.1662425904601227e-07 -9.9987422111973494e-11 0.0000000000000000e+00  7.0957680301640351e-07 8.4174742487860206e-10 0.0000000000000000e+00  5.3322597618237961e-09 -8.4452775483360823e-07 0.0000000000000000e+00  7.1674697532800450e-07 4.4284724523640425e-10 0.0000000000000000e+00  7.8674678993383040e-09 7.3006359256997416e-07 0.0000000000000000e+00  -3.0204377707699369e-20 -3.1185236181782721e-20 0.0000000000000000e+00  -6.1695065201222657e-22 4.2831976300618948e-21 0.0000000000000000e+00  2.8262272281389356e-22 4.7861524719123170e-21 0.0000000000000000e+00  2.6336560904913436e-22 -5.0225134334605904e-21 0.0000000000000000e+00  -5.7156400230328994e-22 -5.4298580218812547e-21 0.0000000000000000e+00  -3.4504309344593775e-20 2.6730900731431053e-20 0.0000000000000000e+00  7.1436277094635141e-07 -4.9613887920610822e-10 0.0000000000000000e+00  6.8898240187325242e-07 -5.7461870276051194e-10 0.0000000000000000e+00  6.8910930032746946e-07 -1.6648273666226333e-09 0.0000000000000000e+00  6.8834456798532466e-07 2.4391958093948590e-10 0.0000000000000000e+00  6.8869727508885273e-07 -9.4158228169243389e-11 0.0000000000000000e+00  6.8811628107176297e-07 7.5659251634361429e-10 0.0000000000000000e+00  7.1066833487266410e-07 9.4096007308421274e-10 0.0000000000000000e+00  7.1373613468977709e-07 1.0387597124611868e-08 0.0000000000000000e+00  7.1089574015365596e-07 -1.2453281319389222e-10 0.0000000000000000e+00  7.1585071861201577e-07 -4.1446254696927457e-10 0.0000000000000000e+00  7.1690701895732184e-07 2.0162675352728844e-10 0.0000000000000000e+00  7.1713939861370180e-07 -1.5782349528159176e-10 0.0000000000000000e+00  -1.3097297727600655e-07 1.0607250568058052e-06 0.0000000000000000e+00  -2.6749479142997710e-07 -1.1057469667956443e-06 0.0000000000000000e+00  6.9035283378026313e-07 -2.3497621725183107e-09 0.0000000000000000e+00  7.0944250528859541e-07 8.8685837830056229e-10 0.0000000000000000e+00  7.1721924032775380e-07 -1.4401172734245771e-10 0.0000000000000000e+00  7.1706494032682667e-07 -1.6376424042120869e-10 0.0000000000000000e+00  5.0725324074996440e-21 5.7319501566586387e-23 0.0000000000000000e+00  6.3417552384588907e-07 4.5938076510065912e-08 0.0000000000000000e+00  2.9509153974950465e-06 3.4606183986750378e-06 0.0000000000000000e+00  3.0006088268922554e-06 -3.6939500089041815e-06 0.0000000000000000e+00  7.1748482465139927e-07 -1.1533614676024478e-10 0.0000000000000000e+00  6.8318513161693310e-07 6.8877382054498448e-10 0.0000000000000000e+00  4.8958845851386635e-21 1.4916349376213730e-23 0.0000000000000000e+00  6.8627455607312946e-07 -1.1029972845277345e-09 0.0000000000000000e+00  7.1749145391850075e-07 1.2659345472788230e-10 0.0000000000000000e+00  7.0769873172886102e-07 5.6955506112638685e-08 0.0000000000000000e+00  7.1625948639719791e-07 2.9359366093877818e-11 0.0000000000000000e+00  5.1729511459292509e-21 -5.0646617651973878e-23 0.0000000000000000e+00  7.1711101696718777e-07 2.8794481797146549e-10 0.0000000000000000e+00  7.1683575465093874e-07 -3.1966981328066787e-10 0.0000000000000000e+00  7.1093398336382698e-07 -2.4228208792441568e-10 0.0000000000000000e+00  7.1285769874945799e-07 1.3587834512059520e-10 0.0000000000000000e+00  7.1109481565694022e-07 -5.3987522080639512e-10 0.0000000000000000e+00  5.0373699658964611e-21 4.1949241967623840e-23 0.0000000000000000e+00  7.1327645140154310e-07 -2.0727523636812143e-10 0.0000000000000000e+00  7.1718555969058248e-07 5.7095750723522794e-10 0.0000000000000000e+00  6.8990497227433871e-07 1.6198815348693087e-09 0.0000000000000000e+00  7.1707217516799538e-07 -3.1026549521376334e-11 0.0000000000000000e+00  7.1718628011938038e-07 -3.5719950803895294e-09 0.0000000000000000e+00  7.1653736346784261e-07 9.8953620342449233e-11 0.0000000000000000e+00  7.1662873585349633e-07 -1.6849548034178101e-10 0.0000000000000000e+00  6.9166309578880308e-07 -1.0833701000189100e-08 0.0000000000000000e+00  7.1280505129256273e-07 4.3496400263792969e-10 0.0000000000000000e+00  7.1252578655227713e-07 -6.3752814791023964e-10 0.0000000000000000e+00  7.1181347591194942e-07 -4.6145979797657753e-10 0.0000000000000000e+00  7.1304749984970780e-07 -1.1670820827090951e-09 0.0000000000000000e+00  7.1649000944310486e-07 2.2085079218174219e-10 0.0000000000000000e+00  5.2691755694133168e-21 -6.1620466855005099e-23 0.0000000000000000e+00  6.6359210517598723e-07 -3.8399483503388540e-07 0.0000000000000000e+00  3.9192498874459206e-07 -7.2277084311811874e-07 0.0000000000000000e+00  1.6709103228121349e-07 -5.4334366573595130e-07 0.0000000000000000e+00  5.1277562794626009e-07 -1.8403604492156512e-07 0.0000000000000000e+00  7.1729213872529140e-07 3.7394640832450228e-11 0.0000000000000000e+00  7.1670455910240742e-07 -3.7820798184850685e-10 0.0000000000000000e+00  7.1661591523530573e-07 6.0877278789844969e-11 0.0000000000000000e+00  7.1659983466181837e-07 -1.3710565824192742e-10 0.0000000000000000e+00  7.1564798340004474e-07 -1.5524453708926540e-09 0.0000000000000000e+00  7.1239957362015039e-07 1.5873183416076823e-09 0.0000000000000000e+00  5.5692358923570590e-21 6.8327437194701062e-24 0.0000000000000000e+00  7.1188810562808770e-07 9.9395824016233892e-10 0.0000000000000000e+00  7.1662427477629459e-07 -2.1227975594069550e-10 0.0000000000000000e+00  7.1660357518764956e-07 3.0832907148285969e-12 0.0000000000000000e+00  7.1172271081001698e-07 6.3889802035680591e-10 0.0000000