<?xml version="1.0"?>
<VTKFile type="UnstructuredGrid"  version="0.1"  >
<UnstructuredGrid>
<Piece  NumberOfPoints="1079" NumberOfCells="1944">
<Points>
<DataArray  type="Float64"  NumberOfComponents="3"  format="ascii">0.08500000000000001 0.02 0  0.005 0.02 0  0.005 0.03 0  0 0.03 0  0 0 0  0.005 0 0  0.005 0.01 0  0.08500000000000001 0.01 0  0 0.015 0  0 0.0075 0  0 0.0225 0  0.04500000000000001 0.02 0  0.04500000000000001 0.01 0  0.025 0.01 0  0.025 0.02 0  0.065 0.02 0  0.065 0.01 0  0.035 0.02 0  0.035 0.01 0  0.07500000000000001 0.02 0  0.07500000000000001 0.01 0  0.015 0.02 0  0.015 0.01 0  0.05500000000000001 0.01 0  0.05500000000000001 0.02 0  0.07000000000000001 0.01 0  0.07000000000000001 0.02 0  0.05 0.01 0  0.03 0.01 0  0.03 0.02 0  0.04000000000000001 0.01 0  0.01 0.01 0  0.02 0.02 0  0.06 0.015 0  0.08500000000000001 0.015 0  0.05 0.02 0  0.07250000000000001 0.015 0  0.04000000000000001 0.02 0  0.03750000000000001 0.015 0  0.0525 0.015 0  0.02 0.01 0  0.01 0.02 0  0.0275 0.015 0  0.0125 0.015 0  0.08000000000000002 0.01 0  0.08000000000000002 0.02 0  0.0325 0.014375 0  0.04291666666666667 0.015 0  0.065 0.015 0  0.005 0.005 0  0.005 0.015 0  0.02208333333333334 0.015 0  0.07791666666666668 0.015 0  0.005 0.025 0  0.06 0.01 0  0.06 0.02 0  0.01729166666666667 0.01572916666666667 0  0.04770833333333334 0.01427083333333334 0  0.06875000000000001 0.01625 0  0.008750000000000001 0.01625 0  0.05625000000000001 0.01625 0  0 0.00375 0  0 0.01875 0  0 0.01125 0  0 0.02625 0  0.08145833333333334 0.01354166666666667 0  0.0675 0.01 0  0.0075 0.0125 0  0.0625 0.0175 0  0.0575 0.0125 0  0.0625 0.0125 0  0.08207465277777778 0.01707465277777778 0  0.06767857142857144 0.01321428571428571 0  0.0175 0.01 0  0.01875 0.01291382575757576 0  0.0475 0.02 0  0.04564168086314595 0.01679860519591141 0  0.00296875 0.0125 0  0.0025 0.03 0  0.0025 0 0  0.00296875 0.0175 0  0.01521990740740741 0.0132349537037037 0  0.0497800925925926 0.0167650462962963 0  0.0325 0.02 0  0.03474264705882353 0.01674632352941176 0  0.03750000000000001 0.02 0  0.03025735294117647 0.01674632352941176 0  0.0275 0.02 0  0.0525 0.02 0  0.0125 0.01 0  0.04020833333333334 0.01322916666666667 0  0.03750000000000001 0.01 0  0.0225 0.02 0  0.02479166666666667 0.01677083333333333 0  0.07520833333333335 0.01322916666666667 0  0.07250000000000001 0.01 0  0.07520833333333335 0.01677083333333334 0  0.07250000000000001 0.02 0  0.04020833333333334 0.01677083333333333 0  0.0225 0.01 0  0.02375 0.01262152777777778 0  0.04250000000000001 0.02 0  0.04250000000000001 0.01 0  0.07750000000000001 0.01 0  0.07750000000000001 0.02 0  0.05036151960784314 0.01294424019607843 0  0.0705560064935065 0.01284699675324675 0  0.05458333333333334 0.01291666666666666 0  0.0021875 0.024375 0  0.005 0.0275 0  0.01125 0.0175 0  0.01463848039215686 0.01705575980392157 0  0.01 0.01375 0  0.03625 0.0125 0  0.0021875 0.009375 0  0.05375000000000001 0.0175 0  0.07125000000000001 0.0175 0  0.005 0.0025 0  0.0021875 0.005625 0  0.02655220103578155 0.01234889948210923 0  0.002187499999999999 0.020625 0  0.02979166666666667 0.01302083333333333 0  0.0525 0.01 0  0.07895833333333334 0.0125 0  0.01994277885235332 0.01704213007736944 0  0.07934656179076068 0.01733823814273861 0  0.04505722114764669 0.01295786992263056 0  0.06625 0.0175 0  0.006250000000000001 0.0175 0  0.05750000000000001 0.02 0  0.05875000000000001 0.0175 0  0.005 0.0225 0  0.005 0.0075 0  0.002375 0.027375 0  0.002375 0.002625000000000001 0  0.0475 0.01 0  0.0175 0.02 0  0.0325 0.01 0  0.03375 0.0121875 0  0.04261299435028249 0.01749205508474576 0  0.08500000000000001 0.0125 0  0.08250000000000002 0.01 0  0.02121963399965531 0.01224824108143494 0  0.0675 0.02 0  0.0125 0.02 0  0.02720152243589744 0.0175 0  0.03715165441176471 0.0175 0  0.08500000000000001 0.0175 0  0.0275 0.01 0  0.0025 0.0149560546875 0  0.0075 0.01 0  0.0075 0.02 0  0.06526785714285716 0.0125 0  0.01281031447005516 0.0125 0  0.0625 0.015 0  0.06 0.0125 0  0.05750000000000001 0.01 0  0.0625 0.02 0  0.0625 0.01 0  0.08250000000000002 0.02 0  0.04260103740101855 0.01252623201412851 0  0.02240052247582197 0.01750164767101344 0  0.07293583459427785 0.01238479732953041 0  0.005234374999999999 0.012265625 0  0.03528131980640358 0.01454684009679821 0  0.0325 0.01760027210036557 0  0.02532593822924343 0.01428227733767297 0  0.08009952069819683 0.01527145502895417 0  0.01987282359856536 0.01482587683689801 0  0.04828232595121382 0.01210233572595705 0  0.01671767404878618 0.01789766427404295 0  0.05125 0.01829007549029352 0  0.05247215456215357 0.01288882122882024 0  0.07338729919678716 0.01799385040160642 0  0.03838729919678716 0.01200614959839357 0  0.07717482110586968 0.01780301674207099 0  0.04771860040890012 0.01773306039388322 0  0.03125 0.01160380747126437 0  0.06875000000000001 0.01154265873015873 0  0.07625000000000001 0.01154065860215054 0  0.01625 0.01153997817696946 0  0.068125 0.018125 0  0.05437500000000001 0.015625 0  0.066875 0.015625 0  0.07039794950204951 0.01494384850614853 0  0.05687500000000001 0.018125 0  0.006875 0.015625 0  0.008749999999999999 0.01833333333333333 0  0.010625 0.015625 0  0.05625 0.01416666666666667 0  0.05812500000000001 0.015625 0  0.0449088595298192 0.01494528408816316 0  0 0.016875 0  0 0.013125 0  0.04962452342047931 0.01478673066448802 0  0.0153754765795207 0.01521326933551198 0  0.0771774565913315 0.01322498191305479 0  0.01857756431135545 0.01840228599899994 0  0.04642243568864456 0.01159771400100006 0  0.08125000000000002 0.01155637254901961 0  0.08317650804863432 0.0118234919513657 0  0.08288217288011697 0.01511353252923977 0  0.02837253504384828 0.0117177464035174 0  0.03896057962520807 0.01831163685754031 0  0.01125 0.0114244162490927 0  0.00935910490099115 0.0119067901980177 0  0.02946078431372549 0.01495404411764706 0  0.02875 0.0185829434466942 0  0.002968749999999999 0.0225 0  0.064375 0.016875 0  0.00296875 0.0075 0  0 0.001875 0  0 0.005625 0  0 0.009375 0  0 0.020625 0  0 0.024375 0  0 0.028125 0  0.06062500000000001 0.01812500000000001 0  0.008303571428571429 0.01446428571428572 0  0.01375 0.01865917058160413 0  0.05137790313978056 0.01143372888932909 0  0.04125000000000001 0.01131513063942604 0  0.04101690263896279 0.01844430285842771 0  0.02399563533148224 0.01844349395710867 0  0.08125000000000002 0.01868815426145731 0  0.05354684380692146 0.01145463537600848 0  0.01699195823639423 0.01315138909884649 0  0.07598357371794873 0.015 0  0.04098357371794872 0.015 0  0.003744047619047619 0.00375 0  0.003344630281690141 0.02580853873239437 0  0.04625 0.0187354532243972 0  0.06388392857142858 0.01138392857142858 0  0.06375 0.01375 0  0.05875 0.01375 0  0.06375 0.02 0  0.00622802734375 0.01372802734375 0  0.003630681818181818 0.001369318181818182 0  0.003630681818181818 0.02863068181818182 0  0.06125 0.01625 0  0.06125 0.01125 0  0.05625000000000001 0.01 0  0.05875 0.01125 0  0.06125 0.01375 0  0.08337864763241221 0.0183786476324122 0  0.05213634138653413 0.01674432930673294 0  0.04375000000000001 0.01 0  0.07424178685897437 0.01529258578431373 0  0.03924178685897436 0.01529258578431372 0  0.03410139294454583 0.01843406022904556 0  0.03089860705545417 0.01843406022904556 0  0.02094160484316717 0.01850229584291991 0  0.04375000000000001 0.02 0  0.04437042160883325 0.01820701498672512 0  0.04816311705429156 0.01600061344661149 0  0.07151224904251052 0.0114127410511319 0  0.04395528506193162 0.01639387970349481 0  0.0128750358694518 0.0167500179347259 0  0.02855808448399799 0.01642839899839741 0  0.02812690373330794 0.01340955081400569 0  0.08358500641945087 0.01351822349116885 0  0.05590277777777778 0.01173611111111111 0  0.06683110430364615 0.01164926404662283 0  0.02573206694914602 0.01842532451809762 0  0.01438126661842046 0.01166701193099454 0  0.02384283211216029 0.01526549696571563 0  0.03625 0.02 0  0.004609375000000001 0.0182421875 0  0.003398437500000001 0.01943359375 0  0.001728307845744682 0.01894718251329787 0  0.004377805359085963 0.01656966216675735 0  0.04649673309852075 0.0153889662370871 0  0.03615513600614297 0.01592654988586041 0  0.03316985071935832 0.01598763605018279 0  0.03110111603888768 0.01529816275177977 0  0.01370614113484869 0.0138804542047638 0  0.04930041102671841 0.01842260568883502 0  0.07875000000000001 0.02 0  0.0745395359848485 0.01165101111925709 0  0.03860755698543604 0.01373741558556884 0  0.02605038706571737 0.01573944002207753 0  0.07559826163500957 0.01841729376139847 0  0.04437500000000001 0.01149157931286774 0  0.06874116707361365 0.01454618473032123 0  0.003761917372881356 0.0239307468220339 0  0.003984374999999999 0.01125 0  0.003768503289473684 0.01392539576480263 0  0.001796875 0.0111328125 0  0.003761917372881356 0.008930746822033899 0  0.005 0.00625 0  0.003761917372881355 0.0210692531779661 0  0.06633928571428571 0.01410714285714285 0  0.006484375 0.01125 0  0.08364120589325512 0.01657288979763549 0  0.03576267476503373 0.0184116442851204 0  0.07370875846579374 0.0137848203678562 0  0.06964285714285715 0.01758928571428571 0  0.05520833333333334 0.01833333333333333 0  0.06491071428571429 0.01839285714285714 0  0.0510098951944636 0.01559941474766356 0  0.01786087179886325 0.0115702210443714 0  0.01972197383235524 0.01160576093166696 0  0.01804697593127788 0.01433503795474974 0  0.001644074528704677 0.01642892723865279 0  0.00125 0.03 0  0.001497685185185185 0.001267746913580247 0  0.07315451164202422 0.01643443118912983 0  0.001233906745910645 0.0140625 0  0.01162635071030191 0.01362229857939618 0  0.01528023503083844 0.01845923557506155 0  0.06625 0.02 0  0.07695012019230771 0.01624387078484555 0  0.03139091092855769 0.01320776147621796 0  0.03857339107781042 0.01675295051810485 0  0.001754993120977522 0.02590789105493891 0  0.002288757784711197 0.00412546923654445 0  0.07914382119690884 0.01404430049871201 0  0.001391810103286306 0.01257390899021902 0  0.0419501201923077 0.01614675005432421 0  0.001484375 0.007018229166666667 0  0.001484375 0.02201822916666666 0  0.048
[...]
<PointData  Vectors="velocity"> 
<DataArray  type="Float64"  Name="velocity"  NumberOfComponents="3" format="ascii">2.5329743820074113e-06 1.9195090314506731e-20 0.0000000000000000e+00  5.3251977172371274e-20 -5.8756173132204610e-20 0.0000000000000000e+00  2.3729743822615047e-18 -1.2328467394420736e-04 0.0000000000000000e+00  -2.5435803836005682e-18 -1.2328467394420720e-04 0.0000000000000000e+00  -2.5022213529729191e-18 1.2328467394420728e-04 0.0000000000000000e+00  2.3264454728054007e-18 1.2328467394420712e-04 0.0000000000000000e+00  4.9596218971397457e-20 4.8594304581184725e-20 0.0000000000000000e+00  2.6014036803389402e-06 -1.8569057241663960e-20 0.0000000000000000e+00  5.6571742828177134e-21 -4.8932032022139820e-22 0.0000000000000000e+00  -6.3183027563872602e-22 4.6504345860078844e-20 0.0000000000000000e+00  3.0292436448536918e-22 -5.4010164416919760e-20 0.0000000000000000e+00  5.0973359701895428e-20 -1.8382071999302331e-22 0.0000000000000000e+00  4.1149474077990376e-20 2.5982646751042333e-22 0.0000000000000000e+00  4.9959593374695201e-20 1.4594174695053625e-22 0.0000000000000000e+00  3.9808726921322841e-20 -1.6839975294236692e-22 0.0000000000000000e+00  4.5416740763093037e-20 1.2320079417071678e-22 0.0000000000000000e+00  4.8434435667567061e-20 6.2532649855534170e-23 0.0000000000000000e+00  3.9026755526958892e-20 -9.4286969488802670e-23 0.0000000000000000e+00  5.3522174113465394e-20 -4.1178222860874762e-23 0.0000000000000000e+00  4.7823728755817982e-20 2.9592514471278193e-22 0.0000000000000000e+00  4.4008292331838883e-20 1.6944453530346275e-22 0.0000000000000000e+00  3.8046339061659447e-20 -1.1961977791870826e-22 0.0000000000000000e+00  4.2294566755263107e-20 -8.4095023952316912e-23 0.0000000000000000e+00  4.6750405605313211e-20 -5.3654767624663364e-22 0.0000000000000000e+00  4.3199031732470523e-20 2.0038461649562045e-22 0.0000000000000000e+00  4.2801099763218804e-20 7.3677740588167965e-23 0.0000000000000000e+00  5.0221405987157035e-20 -1.9578935810422826e-22 0.0000000000000000e+00  4.9076198264970506e-20 1.5813819376143089e-22 0.0000000000000000e+00  4.7053866524313293e-20 3.2555719458703845e-23 0.0000000000000000e+00  3.8318880835740025e-20 -1.0423221153433251e-22 0.0000000000000000e+00  4.3368191523185680e-20 1.5208560791353367e-22 0.0000000000000000e+00  4.3563862000910928e-20 2.5809319284393847e-22 0.0000000000000000e+00  4.1456145931768803e-20 -8.8423327136213226e-23 0.0000000000000000e+00  6.4612791339996851e-06 -9.4441438421049068e-10 0.0000000000000000e+00  6.2055379846116246e-06 1.2366633667110078e-23 0.0000000000000000e+00  4.0826917938496810e-20 2.9517007193481924e-23 0.0000000000000000e+00  6.4611599807062418e-06 2.1782429798187529e-09 0.0000000000000000e+00  4.4198637175330347e-20 -4.3884976528045259e-22 0.0000000000000000e+00  6.4557816464357229e-06 -3.1425588351953394e-09 0.0000000000000000e+00  6.4545487096134858e-06 -3.5167224398027160e-10 0.0000000000000000e+00  4.3290095464208682e-20 1.7577245232629877e-23 0.0000000000000000e+00  4.5356220295463349e-20 -9.0813128921500640e-22 0.0000000000000000e+00  6.4553813257904223e-06 -1.6742550715392154e-10 0.0000000000000000e+00  6.4419176974169065e-06 -2.4942944692638497e-08 0.0000000000000000e+00  4.1061500570565489e-20 -1.7164731929720147e-22 0.0000000000000000e+00  4.3854777993052450e-20 8.1853499369295071e-22 0.0000000000000000e+00  6.4538871581906887e-06 1.8939254956324958e-10 0.0000000000000000e+00  6.4604298187214065e-06 -6.2988993383932819e-10 0.0000000000000000e+00  6.4586873353693648e-06 -5.4352655722738175e-10 0.0000000000000000e+00  -3.3339465163770584e-21 5.5930684841907668e-20 0.0000000000000000e+00  4.8806578529516031e-06 -2.5389963581700559e-07 0.0000000000000000e+00  6.4528742935257825e-06 1.5815274793883803e-09 0.0000000000000000e+00  6.4511904953757642e-06 3.3211717489688947e-10 0.0000000000000000e+00  -5.0665286312919705e-21 -7.0597037352606899e-20 0.0000000000000000e+00  3.9905002207148382e-20 8.8036877022665729e-23 0.0000000000000000e+00  4.8101307952395890e-20 5.8049915004310604e-22 0.0000000000000000e+00  6.4559124347105441e-06 -2.2743294471310876e-09 0.0000000000000000e+00  6.4579751952708699e-06 1.7078397433314915e-09 0.0000000000000000e+00  6.4587361128837842e-06 -1.6476918826585473e-09 0.0000000000000000e+00  6.3593157996258435e-06 -2.0510478827304608e-07 0.0000000000000000e+00  6.4541437598653566e-06 -4.8556601510360013e-09 0.0000000000000000e+00  -2.8782981547571896e-20 9.0221551573797114e-21 0.0000000000000000e+00  2.7471530261408142e-21 -2.6097953748337732e-20 0.0000000000000000e+00  3.6897365356850607e-21 2.8365974537754415e-20 0.0000000000000000e+00  -3.3893096468047327e-20 7.3649555616220989e-21 0.0000000000000000e+00  6.3918867958003820e-06 -6.1753330233528244e-08 0.0000000000000000e+00  3.8446074431110682e-20 -1.0916106959734149e-22 0.0000000000000000e+00  6.3660578549309592e-06 3.6704287851695204e-07 0.0000000000000000e+00  6.4467051955709213e-06 1.8210734099119755e-10 0.0000000000000000e+00  6.4495897348302899e-06 5.4479480469409231e-10 0.0000000000000000e+00  6.4553677055075219e-06 -2.7709979048386379e-09 0.0000000000000000e+00  6.3849188075041580e-06 1.1807800065171939e-07 0.0000000000000000e+00  6.4546565861576642e-06 -1.3080187784750251e-09 0.0000000000000000e+00  4.3616149347790214e-20 -7.3142773028242424e-24 0.0000000000000000e+00  6.4494742689651103e-06 -1.0213340210102821e-10 0.0000000000000000e+00  5.2590676532667580e-20 7.6116958181436599e-22 0.0000000000000000e+00  6.4604201127323355e-06 -4.9217029767103111e-09 0.0000000000000000e+00  3.0882758243481319e-06 2.5202129388125047e-06 0.0000000000000000e+00  -1.3855461213614882e-19 -1.2328467394420779e-04 0.0000000000000000e+00  -2.0963541564663933e-19 1.2328467394420782e-04 0.0000000000000000e+00  3.1974988163413253e-06 -3.1436464897666091e-06 0.0000000000000000e+00  6.4469810401213808e-06 -9.0274379787379322e-09 0.0000000000000000e+00  6.4525765286517591e-06 5.7993749275980406e-09 0.0000000000000000e+00  4.3634830324985354e-20 3.8672828199248200e-22 0.0000000000000000e+00  6.4520226066100402e-06 -1.9906809677816538e-09 0.0000000000000000e+00  4.5307053254486009e-20 2.7606624887147175e-22 0.0000000000000000e+00  6.4532678100624734e-06 -2.0506923465184113e-09 0.0000000000000000e+00  4.7955074106815083e-20 9.4631128546087768e-23 0.0000000000000000e+00  4.1864815616652866e-20 -7.5858214277534360e-24 0.0000000000000000e+00  4.8010416821664155e-20 2.5275914095512455e-22 0.0000000000000000e+00  6.4553512420763024e-06 1.9973535926783893e-09 0.0000000000000000e+00  4.3107764629616931e-20 1.4764284405062373e-22 0.0000000000000000e+00  4.4804666817379315e-20 1.2287815642527346e-22 0.0000000000000000e+00  6.4512823074319502e-06 4.9548729544624467e-10 0.0000000000000000e+00  6.4575666607442713e-06 1.0288882855735479e-09 0.0000000000000000e+00  4.3299449758449885e-20 3.1683870391831257e-23 0.0000000000000000e+00  6.4563309758158153e-06 4.4299431070364382e-09 0.0000000000000000e+00  5.0544275098895295e-20 5.3428170156046381e-22 0.0000000000000000e+00  6.4593166421632979e-06 -8.1998586416593652e-09 0.0000000000000000e+00  4.1025790252921814e-20 1.3795015896057444e-23 0.0000000000000000e+00  6.4457088357053302e-06 4.3480323442288815e-09 0.0000000000000000e+00  4.6575390266890842e-20 -8.8033121724214037e-24 0.0000000000000000e+00  4.4473645466539451e-20 4.3171129816395527e-22 0.0000000000000000e+00  4.6633322491686032e-20 7.9318367970957865e-22 0.0000000000000000e+00  4.9512868948374470e-20 -3.0614928316102268e-22 0.0000000000000000e+00  6.4567334259934112e-06 4.8906806302543465e-09 0.0000000000000000e+00  6.4582436796523255e-06 7.6350943682188992e-09 0.0000000000000000e+00  6.4563597205172755e-06 7.9718199539939602e-10 0.0000000000000000e+00  -1.3496888344247448e-06 -7.0950449136371166e-06 0.0000000000000000e+00  9.1815008640316684e-21 -9.8678213280477301e-20 0.0000000000000000e+00  6.4793149277410933e-06 -5.4682760929700925e-08 0.0000000000000000e+00  6.4655492629696735e-06 -1.7998012794054964e-08 0.0000000000000000e+00  6.3798377758524682e-06 1.6033148055994075e-08 0.0000000000000000e+00  6.4409716663705889e-06 -6.9170423295081127e-09 0.0000000000000000e+00  1.0835548987049620e-06 5.7691739781601816e-06 0.0000000000000000e+00  6.4465885309037502e-06 -1.1245911257158904e-11 0.0000000000000000e+00  6.4602920960334611e-06 -2.2415737196082896e-12 0.0000000000000000e+00  1.8847501336162804e-20 5.3717313869802813e-20 0.0000000000000000e+00  -1.1908520918923478e-06 6.1336733280699023e-06 0.0000000000000000e+00  6.4456938586956914e-06 -4.4188085135722338e-09 0.0000000000000000e+00  1.0789555712338707e-06 -6.6460211892774440e-06 0.0000000000000000e+00  6.4568043685682993e-06 -1.0730082335838483e-09 0.0000000000000000e+00  4.0622818389386992e-20 -3.4795301531991115e-22 0.0000000000000000e+00  6.4442717012879362e-06 -1.9684660538878945e-08 0.0000000000000000e+00  6.4504370122698775e-06 5.1955502576320723e-11 0.0000000000000000e+00  6.4476105750028374e-06 2.9765101170410576e-08 0.0000000000000000e+00  6.4583941203847543e-06 -1.4368642188624684e-09 0.0000000000000000e+00  6.4556067552463804e-06 -7.6261800950990784e-09 0.0000000000000000e+00  6.4441744028312758e-06 -1.1878864679439803e-06 0.0000000000000000e+00  4.5405592600128466e-20 -6.4516720270594880e-22 0.0000000000000000e+00  6.4438645791470015e-06 -2.2968034026848753e-09 0.0000000000000000e+00  5.2176906845364736e-22 -6.1574431773375621e-20 0.0000000000000000e+00  4.7306341015784459e-22 5.4007948577254387e-20 0.0000000000000000e+00  -1.4764597362721505e-05 -1.6216823021910452e-05 0.0000000000000000e+00  -1.2012522671302079e-05 1.3325869393442192e-05 0.0000000000000000e+00  4.3692051383076168e-20 1.6931753543168778e-23 0.0000000000000000e+00  5.0001402020417009e-20 7.5203217429964339e-22 0.0000000000000000e+00  4.2229063238017326e-20 5.9928628763129244e-23 0.0000000000000000e+00  6.4441709225619990e-06 7.8551209643061213e-09 0.0000000000000000e+00  6.4468654918768937e-06 4.7405330758361073e-09 0.0000000000000000e+00  5.8646428682671133e-06 -1.5451062926764505e-21 0.0000000000000000e+00  4.4124981278232138e-20 -1.3828909414330340e-21 0.0000000000000000e+00  6.4467538033880225e-06 1.8187438812302355e-09 0.0000000000000000e+00  4.6917226882389804e-20 3.3834455505612610e-22 0.0000000000000000e+00  4.2519375333940760e-20 -9.7066349940510055e-23 0.0000000000000000e+00  6.4530907836727739e-06 -8.2148239352737497e-10 0.0000000000000000e+00  6.4601002124225074e-06 6.9092729484728908e-10 0.0000000000000000e+00  5.8579461962187333e-06 2.0375583602607058e-21 0.0000000000000000e+00  4.4510764084530701e-20 -5.6043798900778997e-22 0.0000000000000000e+00  2.4007458954905527e-06 -2.3443931340292745e-07 0.0000000000000000e+00  4.8437034225697206e-20 1.5479029602669073e-21 0.0000000000000000e+00  5.4875568729268973e-20 -2.0760034401877486e-21 0.0000000000000000e+00  6.4533701526735158e-06 -2.8914307992824589e-09 0.0000000000000000e+00  6.4309545760692791e-06 -7.7044268037488647e-09 0.0000000000000000e+00  6.4618647839893376e-06 4.4275958111650901e-11 0.0000000000000000e+00  6.4496721858631059e-06 4.0679586399080074e-09 0.0000000000000000e+00  4.8372257865513221e-20 5.1519572039719897e-23 0.0000000000000000e+00  5.2816599923149681e-20 1.6637716108061407e-22 0.0000000000000000e+00  4.2792789135229410e-20 -8.4954630309566202e-22 0.0000000000000000e+00  4.0948471321127514e-20 9.0408203696086608e-22 0.0000000000000000e+00  6.4484712135068796e-06 -1.0391743215824663e-09 0.0000000000000000e+00  6.4492717298036340e-06 2.4477277183528220e-09 0.0000000000000000e+00  6.4477587592914695e-06 -2.1319702118177157e-09 0.0000000000000000e+00  5.8473916287042484e-06 1.7440168683876043e-06 0.0000000000000000e+00  6.4567303425077731e-06 -1.8562554017765190e-09 0.0000000000000000e+00  6.4461886749140388e-06 2.0881557507776700e-09 0.0000000000000000e+00  6.4551449468762958e-06 1.8953560134219740e-09 0.0000000000000000e+00  6.4192378350440428e-06 7.2177165731523746e-09 0.0000000000000000e+00  6.4522086715598520e-06 4.4907711494386958e-10 0.0000000000000000e+00  6.4317943603765212e-06 1.7725715434455890e-09 0.0000000000000000e+00  6.4467715157060095e-06 1.1903103597869666e-09 0.0000000000000000e+00  6.4191769721281038e-06 4.7146872489993134e-10 0.0000000000000000e+00  6.4542248071194493e-06 -6.1945105988055311e-09 0.0000000000000000e+00  6.4349696008655754e-06 3.7788189212486127e-09 0.0000000000000000e+00  6.4290230145553373e-06 -2.3777683962587424e-09 0.0000000000000000e+00  6.4438189288425903e-06 2.6423505012933571e-09 0.0000000000000000e+00  6.4529211278457893e-06 8.0496992138674788e-09 0.0000000000000000e+00  6.4094296729744683e-06 -7.4619314591053707e-09 0.0000000000000000e+00  6.4088723124482770e-06 6.9799119535641843e-09 0.0000000000000000e+00  6.4193868195876601e-06 -9.9418616781826725e-10 0.0000000000000000e+00  6.4062208293473579e-06 -4.6453101759920282e-09 0.0000000000000000e+00  6.4224993956466313e-06 -3.9253514319602578e-09 0.0000000000000000e+00  6.4538256894794844e-06 -1.7571461988099587e-09 0.0000000000000000e+00  6.4575303168028135e-06 -1.1927543346095358e-09 0.0000000000000000e+00  6.4603639683830890e-06 1.5155063152713424e-09 0.0000000000000000e+00  6.4290435420402810e-06 -6.0903291691502223e-09 0.0000000000000000e+00  5.9168285791542280e-06 -3.6205163934584732e-07 0.0000000000000000e+00  6.6087975439489296e-06 -1.9593521279134616e-07 0.0000000000000000e+00  6.4156554309314734e-06 -6.2630540920441004e-08 0.0000000000000000e+00  6.4561541999801684e-06 -1.9692048196898649e-09 0.0000000000000000e+00  6.4595918149997463e-06 -4.3354855038447980e-09 0.0000000000000000e+00  6.4597587955162938e-06 -1.0232761875522415e-09 0.0000000000000000e+00  3.8677462841896619e-21 -1.7442777360071026e-20 0.0000000000000000e+00  5.8694642998250487e-21 1.3320112686979746e-20 0.0000000000000000e+00  6.4563098650046307e-06 3.1083244374228475e-09 0.0000000000000000e+00  6.4549075876867619e-06 -1.0238052600773731e-08 0.0000000000000000e+00  6.4607542008356369e-06 1.2560193411753154e-09 0.0000000000000000e+00  6.4108139042534747e-06 2.8759427923480205e-09 0.0000000000000000e+00  6.4232859403695073e-06 3.4561988072830996e-09 0.0000000000000000e+00  6.4585614268719297e-06 -8.6825550045962954e-08 0.0000000000000000e+00  6.3766333272990716e-06 -4.0079243786585151e-07 0.0000000000000000e+00  6.2914767966912618e-06 6.8892028835188157e-09 0.0000000000000000e+00  6.4144310152067035e-06 5.5968223008616972e-09 0.0000000000000000e+00  6.4160047752919766e-06 -5.5406681914804050e-10 0.0000000000000000e+00  6.1663951538462533e-06 2.7543720856667778e-09 0.0000000000000000e+00  6.4339658160735227e-06 8.4808170389718213e-08 0.0000000000000000e+00  6.4547392590377154e-06 -8.9894977445171306e-10 0.0000000000000000e+00  6.3912634435624788e-06 7.5843908183499720e-09 0.0000000000000000e+00  5.1515018270160259e-08 -7.5962907380792879e-06 0.0000000000000000e+00  6.4558432351868228e-06 3.9896723708620768e-09 0.0000000000000000e+00  7.3778683978993815e-08 6.5841250422559354e-06 0.0000000000000000e+00  -2.7879006946891347e-19 -2.6827669471308129e-19 0.0000000000000000e+00  -5.1625295938494363e-21 3.8577144217776006e-20 0.0000000000000000e+00  2.5178321086542235e-21 4.4316640762122695e-20 0.0000000000000000e+00  2.3070212399328750e-21 -4.4670213190350882e-20 0.0000000000000000e+00  -5.1700562026524861e-21 -4.7180010371944299e-20 0.0000000000000000e+00  -2.9787175026235075e-19 2.2449621039918183e-19 0.0000000000000000e+00  6.4343703486176761e-06 -4.4682622936044802e-09 0.0000000000000000e+00  6.2060852082819937e-06 -3.5055057449952141e-09 0.0000000000000000e+00  6.2066379265066152e-06 -1.4877698494573416e-08 0.0000000000000000e+00  6.2000242164449893e-06 2.1696867610671827e-09 0.0000000000000000e+00  6.2031990863913127e-06 -8.5840508056856574e-10 0.0000000000000000e+00  6.1979519912608156e-06 6.8413432559649360e-09 0.0000000000000000e+00  6.4010795519859976e-06 8.4792440838227653e-09 0.0000000000000000e+00  6.4287342373478175e-06 9.3570697473229563e-08 0.0000000000000000e+00  6.4031392493421023e-06 -1.1126169563941356e-09 0.0000000000000000e+00  6.4478274189242083e-06 -3.6523886576967101e-09 0.0000000000000000e+00  6.4572853234178077e-06 1.8157848153442769e-09 0.0000000000000000e+00  6.4593796054165174e-06 -1.4214837353443852e-09 0.0000000000000000e+00  -1.1629010490944859e-06 9.5328488059155057e-06 0.0000000000000000e+00  -2.3769829772289190e-06 -9.9248305547968284e-06 0.0000000000000000e+00  6.2180725195805112e-06 -2.1165667551637531e-08 0.0000000000000000e+00  6.3900472603780026e-06 7.9937794276890416e-09 0.0000000000000000e+00  6.4600980508766881e-06 -1.2971629418801118e-09 0.0000000000000000e+00  6.4587093189664508e-06 -1.4746238684951243e-09 0.0000000000000000e+00  4.4622858257896780e-20 5.2781559925614033e-22 0.0000000000000000e+00  5.7131947526388630e-06 4.1677996486348199e-07 0.0000000000000000e+00  2.6519345833034625e-05 3.1006904402792166e-05 0.0000000000000000e+00  2.6911586412531496e-05 -3.3060198090753272e-05 0.0000000000000000e+00  6.4624900134201940e-06 -1.0381942193104886e-09 0.0000000000000000e+00  6.1535095183994214e-06 6.1967447861632186e-09 0.0000000000000000e+00  4.3609167380734842e-20 1.3920000656291163e-22 0.0000000000000000e+00  6.1813784676208291e-06 -9.9515387785362535e-09 0.0000000000000000e+00  6.4625506133640082e-06 1.1400514995132136e-09 0.0000000000000000e+00  6.3743559600085006e-06 5.1299531698817156e-07 0.0000000000000000e+00  6.4514535727622878e-06 2.6401948111609463e-10 0.0000000000000000e+00  4.6753786550980310e-20 -4.4913100653342643e-22 0.0000000000000000e+00  6.4591231918035925e-06 2.5934834545732230e-09 0.0000000000000000e+00  6.4566444980809929e-06 -2.8791871997202225e-09 0.0000000000000000e+00  6.4034852723786056e-06 -2.1857460946788495e-09 0.0000000000000000e+00  6.4208127675214562e-06 1.2246577066436937e-09 0.0000000000000000e+00  6.4049102164065098e-06 -4.8490983026775555e-09 0.0000000000000000e+00  4.6669688195889360e-20 3.8009751547347624e-22 0.0000000000000000e+00  6.4245809474559467e-06 -1.8699767251329014e-09 0.0000000000000000e+00  6.4597945479155547e-06 5.1430925056311766e-09 0.0000000000000000e+00  6.2140784623442583e-06 1.4571786751276029e-08 0.0000000000000000e+00  6.4587739802024052e-06 -2.7916977491052667e-10 0.0000000000000000e+00  6.4595905132666466e-06 -3.1846999233503515e-08 0.0000000000000000e+00  6.4539557849598604e-06 8.9326674733754544e-10 0.0000000000000000e+00  6.4547804024455642e-06 -1.5162236301323741e-09 0.0000000000000000e+00  6.2298736322135780e-06 -9.7616313534165859e-08 0.0000000000000000e+00  6.4203428563341814e-06 3.9136256214829444e-09 0.0000000000000000e+00  6.4178205889703240e-06 -5.7473410540463075e-09 0.0000000000000000e+00  6.4114068327298887e-06 -4.1494774678954707e-09 0.0000000000000000e+00  6.4227156965540109e-06 -1.0405518359771819e-08 0.0000000000000000e+00  6.4535293983737027e-06 1.9989107059957243e-09 0.0000000000000000e+00  4.6389664814586719e-20 -5.5690805684788694e-22 0.0000000000000000e+00  5.9739699998361960e-06 -3.4535923779033408e-06 0.0000000000000000e+00  3.5279158775965950e-06 -6.5016501265792592e-06 0.0000000000000000e+00  1.5044267909677645e-06 -4.8867146146009987e-06 0.0000000000000000e+00  4.6174745268986278e-06 -1.6529420901833431e-06 0.0000000000000000e+00  6.4607550020176446e-06 3.3729137392385473e-10 0.0000000000000000e+00  6.4554628114023976e-06 -3.4066623618975995e-09 0.0000000000000000e+00  6.4546640700780656e-06 5.4868959456409531e-10 0.0000000000000000e+00  6.4545193437198443e-06 -1.2338079549059773e-09 0.0000000000000000e+00  6.4460539409393479e-06 -1.3713902703967074e-08 0.0000000000000000e+00  6.4166781581717517e-06 1.4294396916755119e-08 0.0000000000000000e+00  5.2274416318152906e-20 7.5395792766566688e-23 0.0000000000000000e+00  6.4120862313088076e-06 8.9487848274782191e-09 0.0000000000000000e+00  6.4547396892299988e-06 -1.9117776082923449e-09 0.0000000000000000e+00  6.4545518053611634e-06 3.2166821933066204e-11 0.0000000000000000e+00  6.4105911073468025e-06 5.7523722465174178e-09 0.000000