<?xml version="1.0"?>
<VTKFile type="UnstructuredGrid"  version="0.1"  >
<UnstructuredGrid>
<Piece  NumberOfPoints="1079" NumberOfCells="1944">
<Points>
<DataArray  type="Float64"  NumberOfComponents="3"  format="ascii">0.08500000000000001 0.02 0  0.005 0.02 0  0.005 0.03 0  0 0.03 0  0 0 0  0.005 0 0  0.005 0.01 0  0.08500000000000001 0.01 0  0 0.015 0  0 0.0075 0  0 0.0225 0  0.04500000000000001 0.02 0  0.04500000000000001 0.01 0  0.025 0.01 0  0.025 0.02 0  0.065 0.02 0  0.065 0.01 0  0.035 0.02 0  0.035 0.01 0  0.07500000000000001 0.02 0  0.07500000000000001 0.01 0  0.015 0.02 0  0.015 0.01 0  0.05500000000000001 0.01 0  0.05500000000000001 0.02 0  0.07000000000000001 0.01 0  0.07000000000000001 0.02 0  0.05 0.01 0  0.03 0.01 0  0.03 0.02 0  0.04000000000000001 0.01 0  0.01 0.01 0  0.02 0.02 0  0.06 0.015 0  0.08500000000000001 0.015 0  0.05 0.02 0  0.07250000000000001 0.015 0  0.04000000000000001 0.02 0  0.03750000000000001 0.015 0  0.0525 0.015 0  0.02 0.01 0  0.01 0.02 0  0.0275 0.015 0  0.0125 0.015 0  0.08000000000000002 0.01 0  0.08000000000000002 0.02 0  0.0325 0.014375 0  0.04291666666666667 0.015 0  0.065 0.015 0  0.005 0.005 0  0.005 0.015 0  0.02208333333333334 0.015 0  0.07791666666666668 0.015 0  0.005 0.025 0  0.06 0.01 0  0.06 0.02 0  0.01729166666666667 0.01572916666666667 0  0.04770833333333334 0.01427083333333334 0  0.06875000000000001 0.01625 0  0.008750000000000001 0.01625 0  0.05625000000000001 0.01625 0  0 0.00375 0  0 0.01875 0  0 0.01125 0  0 0.02625 0  0.08145833333333334 0.01354166666666667 0  0.0675 0.01 0  0.0075 0.0125 0  0.0625 0.0175 0  0.0575 0.0125 0  0.0625 0.0125 0  0.08207465277777778 0.01707465277777778 0  0.06767857142857144 0.01321428571428571 0  0.0175 0.01 0  0.01875 0.01291382575757576 0  0.0475 0.02 0  0.04564168086314595 0.01679860519591141 0  0.00296875 0.0125 0  0.0025 0.03 0  0.0025 0 0  0.00296875 0.0175 0  0.01521990740740741 0.0132349537037037 0  0.0497800925925926 0.0167650462962963 0  0.0325 0.02 0  0.03474264705882353 0.01674632352941176 0  0.03750000000000001 0.02 0  0.03025735294117647 0.01674632352941176 0  0.0275 0.02 0  0.0525 0.02 0  0.0125 0.01 0  0.04020833333333334 0.01322916666666667 0  0.03750000000000001 0.01 0  0.0225 0.02 0  0.02479166666666667 0.01677083333333333 0  0.07520833333333335 0.01322916666666667 0  0.07250000000000001 0.01 0  0.07520833333333335 0.01677083333333334 0  0.07250000000000001 0.02 0  0.04020833333333334 0.01677083333333333 0  0.0225 0.01 0  0.02375 0.01262152777777778 0  0.04250000000000001 0.02 0  0.04250000000000001 0.01 0  0.07750000000000001 0.01 0  0.07750000000000001 0.02 0  0.05036151960784314 0.01294424019607843 0  0.0705560064935065 0.01284699675324675 0  0.05458333333333334 0.01291666666666666 0  0.0021875 0.024375 0  0.005 0.0275 0  0.01125 0.0175 0  0.01463848039215686 0.01705575980392157 0  0.01 0.01375 0  0.03625 0.0125 0  0.0021875 0.009375 0  0.05375000000000001 0.0175 0  0.07125000000000001 0.0175 0  0.005 0.0025 0  0.0021875 0.005625 0  0.02655220103578155 0.01234889948210923 0  0.002187499999999999 0.020625 0  0.02979166666666667 0.01302083333333333 0  0.0525 0.01 0  0.07895833333333334 0.0125 0  0.01994277885235332 0.01704213007736944 0  0.07934656179076068 0.01733823814273861 0  0.04505722114764669 0.01295786992263056 0  0.06625 0.0175 0  0.006250000000000001 0.0175 0  0.05750000000000001 0.02 0  0.05875000000000001 0.0175 0  0.005 0.0225 0  0.005 0.0075 0  0.002375 0.027375 0  0.002375 0.002625000000000001 0  0.0475 0.01 0  0.0175 0.02 0  0.0325 0.01 0  0.03375 0.0121875 0  0.04261299435028249 0.01749205508474576 0  0.08500000000000001 0.0125 0  0.08250000000000002 0.01 0  0.02121963399965531 0.01224824108143494 0  0.0675 0.02 0  0.0125 0.02 0  0.02720152243589744 0.0175 0  0.03715165441176471 0.0175 0  0.08500000000000001 0.0175 0  0.0275 0.01 0  0.0025 0.0149560546875 0  0.0075 0.01 0  0.0075 0.02 0  0.06526785714285716 0.0125 0  0.01281031447005516 0.0125 0  0.0625 0.015 0  0.06 0.0125 0  0.05750000000000001 0.01 0  0.0625 0.02 0  0.0625 0.01 0  0.08250000000000002 0.02 0  0.04260103740101855 0.01252623201412851 0  0.02240052247582197 0.01750164767101344 0  0.07293583459427785 0.01238479732953041 0  0.005234374999999999 0.012265625 0  0.03528131980640358 0.01454684009679821 0  0.0325 0.01760027210036557 0  0.02532593822924343 0.01428227733767297 0  0.08009952069819683 0.01527145502895417 0  0.01987282359856536 0.01482587683689801 0  0.04828232595121382 0.01210233572595705 0  0.01671767404878618 0.01789766427404295 0  0.05125 0.01829007549029352 0  0.05247215456215357 0.01288882122882024 0  0.07338729919678716 0.01799385040160642 0  0.03838729919678716 0.01200614959839357 0  0.07717482110586968 0.01780301674207099 0  0.04771860040890012 0.01773306039388322 0  0.03125 0.01160380747126437 0  0.06875000000000001 0.01154265873015873 0  0.07625000000000001 0.01154065860215054 0  0.01625 0.01153997817696946 0  0.068125 0.018125 0  0.05437500000000001 0.015625 0  0.066875 0.015625 0  0.07039794950204951 0.01494384850614853 0  0.05687500000000001 0.018125 0  0.006875 0.015625 0  0.008749999999999999 0.01833333333333333 0  0.010625 0.015625 0  0.05625 0.01416666666666667 0  0.05812500000000001 0.015625 0  0.0449088595298192 0.01494528408816316 0  0 0.016875 0  0 0.013125 0  0.04962452342047931 0.01478673066448802 0  0.0153754765795207 0.01521326933551198 0  0.0771774565913315 0.01322498191305479 0  0.01857756431135545 0.01840228599899994 0  0.04642243568864456 0.01159771400100006 0  0.08125000000000002 0.01155637254901961 0  0.08317650804863432 0.0118234919513657 0  0.08288217288011697 0.01511353252923977 0  0.02837253504384828 0.0117177464035174 0  0.03896057962520807 0.01831163685754031 0  0.01125 0.0114244162490927 0  0.00935910490099115 0.0119067901980177 0  0.02946078431372549 0.01495404411764706 0  0.02875 0.0185829434466942 0  0.002968749999999999 0.0225 0  0.064375 0.016875 0  0.00296875 0.0075 0  0 0.001875 0  0 0.005625 0  0 0.009375 0  0 0.020625 0  0 0.024375 0  0 0.028125 0  0.06062500000000001 0.01812500000000001 0  0.008303571428571429 0.01446428571428572 0  0.01375 0.01865917058160413 0  0.05137790313978056 0.01143372888932909 0  0.04125000000000001 0.01131513063942604 0  0.04101690263896279 0.01844430285842771 0  0.02399563533148224 0.01844349395710867 0  0.08125000000000002 0.01868815426145731 0  0.05354684380692146 0.01145463537600848 0  0.01699195823639423 0.01315138909884649 0  0.07598357371794873 0.015 0  0.04098357371794872 0.015 0  0.003744047619047619 0.00375 0  0.003344630281690141 0.02580853873239437 0  0.04625 0.0187354532243972 0  0.06388392857142858 0.01138392857142858 0  0.06375 0.01375 0  0.05875 0.01375 0  0.06375 0.02 0  0.00622802734375 0.01372802734375 0  0.003630681818181818 0.001369318181818182 0  0.003630681818181818 0.02863068181818182 0  0.06125 0.01625 0  0.06125 0.01125 0  0.05625000000000001 0.01 0  0.05875 0.01125 0  0.06125 0.01375 0  0.08337864763241221 0.0183786476324122 0  0.05213634138653413 0.01674432930673294 0  0.04375000000000001 0.01 0  0.07424178685897437 0.01529258578431373 0  0.03924178685897436 0.01529258578431372 0  0.03410139294454583 0.01843406022904556 0  0.03089860705545417 0.01843406022904556 0  0.02094160484316717 0.01850229584291991 0  0.04375000000000001 0.02 0  0.04437042160883325 0.01820701498672512 0  0.04816311705429156 0.01600061344661149 0  0.07151224904251052 0.0114127410511319 0  0.04395528506193162 0.01639387970349481 0  0.0128750358694518 0.0167500179347259 0  0.02855808448399799 0.01642839899839741 0  0.02812690373330794 0.01340955081400569 0  0.08358500641945087 0.01351822349116885 0  0.05590277777777778 0.01173611111111111 0  0.06683110430364615 0.01164926404662283 0  0.02573206694914602 0.01842532451809762 0  0.01438126661842046 0.01166701193099454 0  0.02384283211216029 0.01526549696571563 0  0.03625 0.02 0  0.004609375000000001 0.0182421875 0  0.003398437500000001 0.01943359375 0  0.001728307845744682 0.01894718251329787 0  0.004377805359085963 0.01656966216675735 0  0.04649673309852075 0.0153889662370871 0  0.03615513600614297 0.01592654988586041 0  0.03316985071935832 0.01598763605018279 0  0.03110111603888768 0.01529816275177977 0  0.01370614113484869 0.0138804542047638 0  0.04930041102671841 0.01842260568883502 0  0.07875000000000001 0.02 0  0.0745395359848485 0.01165101111925709 0  0.03860755698543604 0.01373741558556884 0  0.02605038706571737 0.01573944002207753 0  0.07559826163500957 0.01841729376139847 0  0.04437500000000001 0.01149157931286774 0  0.06874116707361365 0.01454618473032123 0  0.003761917372881356 0.0239307468220339 0  0.003984374999999999 0.01125 0  0.003768503289473684 0.01392539576480263 0  0.001796875 0.0111328125 0  0.003761917372881356 0.008930746822033899 0  0.005 0.00625 0  0.003761917372881355 0.0210692531779661 0  0.06633928571428571 0.01410714285714285 0  0.006484375 0.01125 0  0.08364120589325512 0.01657288979763549 0  0.03576267476503373 0.0184116442851204 0  0.07370875846579374 0.0137848203678562 0  0.06964285714285715 0.01758928571428571 0  0.05520833333333334 0.01833333333333333 0  0.06491071428571429 0.01839285714285714 0  0.0510098951944636 0.01559941474766356 0  0.01786087179886325 0.0115702210443714 0  0.01972197383235524 0.01160576093166696 0  0.01804697593127788 0.01433503795474974 0  0.001644074528704677 0.01642892723865279 0  0.00125 0.03 0  0.001497685185185185 0.001267746913580247 0  0.07315451164202422 0.01643443118912983 0  0.001233906745910645 0.0140625 0  0.01162635071030191 0.01362229857939618 0  0.01528023503083844 0.01845923557506155 0  0.06625 0.02 0  0.07695012019230771 0.01624387078484555 0  0.03139091092855769 0.01320776147621796 0  0.03857339107781042 0.01675295051810485 0  0.001754993120977522 0.02590789105493891 0  0.002288757784711197 0.00412546923654445 0  0.07914382119690884 0.01404430049871201 0  0.001391810103286306 0.01257390899021902 0  0.0419501201923077 0.01614675005432421 0  0.001484375 0.007018229166666667 0  0.001484375 0.02201822916666666 0  0.048
[...]
<PointData  Vectors="velocity"> 
<DataArray  type="Float64"  Name="velocity"  NumberOfComponents="3" format="ascii">3.2330503735522936e-07 2.4402269070037813e-21 0.0000000000000000e+00  6.7124340973577237e-21 -7.9430470152066398e-21 0.0000000000000000e+00  2.7529604761530529e-19 -1.5922827933411036e-05 0.0000000000000000e+00  -3.3345718443544034e-19 -1.5922827933411006e-05 0.0000000000000000e+00  -3.3087224502121247e-19 1.5922827933411023e-05 0.0000000000000000e+00  2.7529604761530577e-19 1.5922827933411002e-05 0.0000000000000000e+00  6.6296381220737627e-21 6.0392621202014522e-21 0.0000000000000000e+00  3.3204463163318277e-07 -2.4460361276855551e-21 0.0000000000000000e+00  7.2608821710271990e-22 -3.6699024016604866e-23 0.0000000000000000e+00  -8.1111041054593474e-23 6.1490868726308846e-21 0.0000000000000000e+00  3.0415640900191379e-23 -6.7284264642273994e-21 0.0000000000000000e+00  6.0353342917048059e-21 -2.4510435585323975e-23 0.0000000000000000e+00  5.1425585829125876e-21 3.2103909170079008e-23 0.0000000000000000e+00  6.4350128422841104e-21 1.8560905317110354e-23 0.0000000000000000e+00  5.1413602125603319e-21 -2.0771311317429597e-23 0.0000000000000000e+00  5.8085067758353945e-21 1.8634120118320915e-23 0.0000000000000000e+00  5.9367436511551607e-21 7.7231613364568432e-24 0.0000000000000000e+00  4.9693115025191171e-21 -1.0154608002820100e-23 0.0000000000000000e+00  6.8686653412221547e-21 -5.1552876266933513e-24 0.0000000000000000e+00  6.0594088370707742e-21 3.7477176655973717e-23 0.0000000000000000e+00  5.4852742591260495e-21 2.0626424173931692e-23 0.0000000000000000e+00  5.5097594677708043e-21 -1.2517031685622408e-23 0.0000000000000000e+00  4.7868484098375785e-21 -1.2578204101750158e-23 0.0000000000000000e+00  5.7720976245823825e-21 -6.6294929336892884e-23 0.0000000000000000e+00  5.4036331077145750e-21 2.5141690394584565e-23 0.0000000000000000e+00  5.5133620033976764e-21 8.0053698908297880e-24 0.0000000000000000e+00  6.7544612482727022e-21 -2.2717928888233384e-23 0.0000000000000000e+00  5.8737164139374305e-21 1.8775956905246304e-23 0.0000000000000000e+00  6.0553638193189151e-21 2.3738545438638221e-24 0.0000000000000000e+00  5.0349121609727092e-21 -1.0565033686133022e-23 0.0000000000000000e+00  5.6509551353554404e-21 1.8761152706299467e-23 0.0000000000000000e+00  5.6269988417843286e-21 3.2025300027796390e-23 0.0000000000000000e+00  5.2395962219318904e-21 -1.0635218489130297e-23 0.0000000000000000e+00  8.2496278478245615e-07 -1.2063699327556573e-10 0.0000000000000000e+00  7.9232052070333214e-07 2.0564890299466441e-24 0.0000000000000000e+00  5.0579084203294269e-21 2.6661610663463166e-24 0.0000000000000000e+00  8.2494761299723365e-07 2.7811128003667863e-10 0.0000000000000000e+00  6.0384260284357362e-21 -5.5085504758949184e-23 0.0000000000000000e+00  8.2426087735581361e-07 -4.0125189715081533e-10 0.0000000000000000e+00  8.2410349128013077e-07 -4.4868998305526681e-11 0.0000000000000000e+00  5.5886803570597270e-21 2.5458417657659463e-24 0.0000000000000000e+00  6.1962049583966326e-21 -1.1472660743281266e-22 0.0000000000000000e+00  8.2420979603726124e-07 -2.1725857380748216e-11 0.0000000000000000e+00  8.2249079548063214e-07 -3.2395628876556463e-09 0.0000000000000000e+00  5.2619279058503438e-21 -1.9941379741880757e-23 0.0000000000000000e+00  5.5771203737960286e-21 1.0981440313292432e-22 0.0000000000000000e+00  8.2401897758261423e-07 2.4104813802536290e-11 0.0000000000000000e+00  8.2485432031335500e-07 -8.0440323082731226e-11 0.0000000000000000e+00  8.2463195581846643e-07 -6.9390565191150120e-11 0.0000000000000000e+00  -4.3229343822426407e-22 7.4142989692564435e-21 0.0000000000000000e+00  6.2314468660707509e-07 -3.2926169279329249e-08 0.0000000000000000e+00  8.2388969585417741e-07 1.9964879975600577e-10 0.0000000000000000e+00  8.2367513827394217e-07 4.2402056354628111e-11 0.0000000000000000e+00  -6.8411462623814299e-22 -8.7253720276693849e-21 0.0000000000000000e+00  5.3112427026720772e-21 9.7029891342185348e-24 0.0000000000000000e+00  6.0218758472098423e-21 7.3024074893902920e-23 0.0000000000000000e+00  8.2428068707020127e-07 -3.0107687470322517e-10 0.0000000000000000e+00  8.2454101703066887e-07 2.1804749642675412e-10 0.0000000000000000e+00  8.2463810531654644e-07 -2.1041667814558000e-10 0.0000000000000000e+00  8.1201380572942699e-07 -2.6359033626524640e-08 0.0000000000000000e+00  8.2405167074495054e-07 -6.1988127543093093e-10 0.0000000000000000e+00  -3.6187793544836773e-21 1.0850709096298576e-21 0.0000000000000000e+00  3.3489870061514805e-22 -3.1763956864753162e-21 0.0000000000000000e+00  4.7246626371576992e-22 3.6897365356850607e-21 0.0000000000000000e+00  -4.3617697986305635e-21 1.0636282910595022e-21 0.0000000000000000e+00  8.1610469988288024e-07 -7.8830072863125390e-09 0.0000000000000000e+00  5.0451921517694183e-21 -1.5582508863879988e-23 0.0000000000000000e+00  8.1260204368155739e-07 4.6661618991660946e-08 0.0000000000000000e+00  8.2310182756440597e-07 2.2647355860486328e-11 0.0000000000000000e+00  8.2347002989663281e-07 6.9800200966562413e-11 0.0000000000000000e+00  8.2420792509522655e-07 -3.5345481165444371e-10 0.0000000000000000e+00  8.1521536810093805e-07 1.5073607768314265e-08 0.0000000000000000e+00  8.2411730016671900e-07 -1.6703791479119618e-10 0.0000000000000000e+00  5.5867452833661963e-21 -8.2290403982585658e-25 0.0000000000000000e+00  8.2345131093276943e-07 -1.8197094250173983e-11 0.0000000000000000e+00  6.6012255439442120e-21 9.9345790935428561e-23 0.0000000000000000e+00  8.2485305030349792e-07 -6.2852521571345567e-10 0.0000000000000000e+00  3.9412424824593156e-07 3.2099687701173752e-07 0.0000000000000000e+00  -2.0572642394109482e-20 -1.5922827933411090e-05 0.0000000000000000e+00  -2.9346403774526839e-20 1.5922827933411100e-05 0.0000000000000000e+00  4.0840403916267577e-07 -4.0213886728251634e-07 0.0000000000000000e+00  8.2312463317115730e-07 -1.1710338730290536e-09 0.0000000000000000e+00  8.2385184669311275e-07 7.4054031367346365e-10 0.0000000000000000e+00  5.8351624385424709e-21 5.0248154860210898e-23 0.0000000000000000e+00  8.2378097989026708e-07 -2.5408992440216444e-10 0.0000000000000000e+00  5.7908142715695113e-21 3.4290870702875859e-23 0.0000000000000000e+00  8.2393994197736686e-07 -2.6193814599821896e-10 0.0000000000000000e+00  6.2962728153292096e-21 1.1971784974742799e-23 0.0000000000000000e+00  5.4010737422464078e-21 -6.4145015824858506e-25 0.0000000000000000e+00  6.2675640106722967e-21 3.2885966223917971e-23 0.0000000000000000e+00  8.2420597785425312e-07 2.5499006082934030e-10 0.0000000000000000e+00  5.4272393741761079e-21 1.9772981721935528e-23 0.0000000000000000e+00  6.1597070952155022e-21 1.5495319538199850e-23 0.0000000000000000e+00  8.2368691653264250e-07 6.2583251379087531e-11 0.0000000000000000e+00  8.2448888238033517e-07 1.3128672457607480e-10 0.0000000000000000e+00  5.9486680536139476e-21 6.4374877191726376e-24 0.0000000000000000e+00  8.2433094741494632e-07 5.6563676315293277e-10 0.0000000000000000e+00  6.2631585820287162e-21 6.6953573523594881e-23 0.0000000000000000e+00  8.2471228823718428e-07 -1.0468138544367410e-09 0.0000000000000000e+00  5.3536402115763359e-21 1.6509992428792155e-24 0.0000000000000000e+00  8.2297366094291046e-07 5.5446152769195315e-10 0.0000000000000000e+00  6.1271052720052972e-21 3.6680467385089185e-25 0.0000000000000000e+00  5.8447244535686333e-21 5.2158244041759921e-23 0.0000000000000000e+00  6.2783690297799081e-21 1.0122884452676837e-22 0.0000000000000000e+00  6.5699768412266121e-21 -4.0417656443234368e-23 0.0000000000000000e+00  8.2438258326362633e-07 6.2455065079372021e-10 0.0000000000000000e+00  8.2457521143222957e-07 9.7486790696116855e-10 0.0000000000000000e+00  8.2433477140230785e-07 1.0162641827232691e-10 0.0000000000000000e+00  -1.7416658838186838e-07 -9.0658867992394401e-07 0.0000000000000000e+00  1.1685620973078821e-21 -1.2560712308996248e-20 0.0000000000000000e+00  8.2732852914232202e-07 -7.0400603124691272e-09 0.0000000000000000e+00  8.2552490002586795e-07 -2.3185936696380716e-09 0.0000000000000000e+00  8.1451180241290689e-07 1.9342285211771329e-09 0.0000000000000000e+00  8.2236915291108713e-07 -8.8287858595677785e-10 0.0000000000000000e+00  1.3815126065062763e-07 7.3550641586056003e-07 0.0000000000000000e+00  8.2308748485189092e-07 -1.4970600772572246e-12 0.0000000000000000e+00  8.2483686280870472e-07 -9.4815985098459796e-13 0.0000000000000000e+00  2.6123333474147624e-21 7.1016765814905014e-21 0.0000000000000000e+00  -1.5339969760310778e-07 7.8170711664755462e-07 0.0000000000000000e+00  8.2297296803333655e-07 -5.6391199153675128e-10 0.0000000000000000e+00  1.3772833249181035e-07 -8.4959884726763619e-07 0.0000000000000000e+00  8.2439139852722690e-07 -1.3748368193312508e-10 0.0000000000000000e+00  5.4508307942859151e-21 -4.4689412361626019e-23 0.0000000000000000e+00  8.2278968443014645e-07 -2.5117840653288779e-09 0.0000000000000000e+00  8.2358127626962604e-07 3.1927349597509815e-12 0.0000000000000000e+00  8.2321777622961275e-07 3.7994639482689067e-09 0.0000000000000000e+00  8.2459448509249136e-07 -1.8360194668036985e-10 0.0000000000000000e+00  8.2423876056287529e-07 -9.7354738685136695e-10 0.0000000000000000e+00  8.2303990185767274e-07 -1.5201189452201302e-07 0.0000000000000000e+00  6.1936906907785913e-21 -8.1829341537651328e-23 0.0000000000000000e+00  8.2274010532063170e-07 -2.9420492160283374e-10 0.0000000000000000e+00  6.8979338620998873e-23 -7.7877111051956365e-21 0.0000000000000000e+00  6.3474191505449306e-23 6.8142079297971632e-21 0.0000000000000000e+00  -1.9050619567698600e-06 -2.0765054639666348e-06 0.0000000000000000e+00  -1.5475931954576157e-06 1.7036891535252299e-06 0.0000000000000000e+00  5.6637844385469106e-21 1.5520774081238046e-24 0.0000000000000000e+00  6.1979645118185630e-21 9.5581936854855482e-23 0.0000000000000000e+00  5.2545558248120306e-21 9.4989045164527053e-24 0.0000000000000000e+00  8.2277876887210982e-07 1.0030962875248982e-09 0.0000000000000000e+00  8.2312300969095721e-07 6.0473582631487114e-10 0.0000000000000000e+00  7.4878722762739854e-07 -1.9510503049736762e-22 0.0000000000000000e+00  5.5475048716852547e-21 -2.0374726046329643e-22 0.0000000000000000e+00  8.2310611129572307e-07 2.3052860346446799e-10 0.0000000000000000e+00  6.0342495556718859e-21 4.0032600605171284e-23 0.0000000000000000e+00  5.5565092765945309e-21 -1.2672551242233256e-23 0.0000000000000000e+00  8.2391780916980287e-07 -1.0527334876129428e-10 0.0000000000000000e+00  8.2481208609057973e-07 8.8490959754698369e-11 0.0000000000000000e+00  7.4793196941412584e-07 2.6267436341915907e-22 0.0000000000000000e+00  5.7482942208064137e-21 -7.0176654578205535e-23 0.0000000000000000e+00  3.0651703571729737e-07 -3.0644604562165563e-08 0.0000000000000000e+00  6.0546292782121508e-21 1.9220365850659330e-22 0.0000000000000000e+00  7.1211949202808274e-21 -2.9111750365644778e-22 0.0000000000000000e+00  8.2395309643670443e-07 -3.6896413333096371e-10 0.0000000000000000e+00  8.2105508605745412e-07 -1.0156653379541075e-09 0.0000000000000000e+00  8.2503763419554187e-07 5.6702624136187649e-12 0.0000000000000000e+00  8.2348063916220999e-07 5.1982270866833170e-10 0.0000000000000000e+00  5.9765945867677720e-21 6.8362278119542664e-24 0.0000000000000000e+00  7.0605524202821626e-21 2.0785951838448624e-23 0.0000000000000000e+00  5.7980209078839010e-21 -1.1161985912140466e-22 0.0000000000000000e+00  5.2725718454754789e-21 1.2922894492642289e-22 0.0000000000000000e+00  8.2332842909111514e-07 -1.3234093643258026e-10 0.0000000000000000e+00  8.2343127794136625e-07 3.1092120326780603e-10 0.0000000000000000e+00  8.2323709690855349e-07 -2.7177284843018750e-10 0.0000000000000000e+00  7.4623482814717480e-07 2.2218108702777550e-07 0.0000000000000000e+00  8.2438201548205225e-07 -2.3699227649416516e-10 0.0000000000000000e+00  8.2303566913204598e-07 2.6618928167671597e-10 0.0000000000000000e+00  8.2417941289574353e-07 2.4130468049399764e-10 0.0000000000000000e+00  8.1959625230783657e-07 9.2142725307547100e-10 0.0000000000000000e+00  8.2380458842106534e-07 5.2656105496142650e-11 0.0000000000000000e+00  8.2119792371102408e-07 2.2653717978168351e-10 0.0000000000000000e+00  8.2312136830059972e-07 1.4353689427991327e-10 0.0000000000000000e+00  8.1958693151865922e-07 5.9985579368335299e-11 0.0000000000000000e+00  8.2406206412007222e-07 -7.9094175864137212e-10 0.0000000000000000e+00  8.2160326852434896e-07 4.8172615693743751e-10 0.0000000000000000e+00  8.2084410316151695e-07 -3.0341205276229373e-10 0.0000000000000000e+00  8.2273311827959853e-07 3.3670874821851030e-10 0.0000000000000000e+00  8.2389545879828366e-07 1.0270459165800055e-09 0.0000000000000000e+00  8.1834243539501069e-07 -9.5273551432665072e-10 0.0000000000000000e+00  8.1827207674515637e-07 8.9145094883082037e-10 0.0000000000000000e+00  8.1961436179591224e-07 -1.2736093500846468e-10 0.0000000000000000e+00  8.1791886420132350e-07 -5.9919932986784649e-10 0.0000000000000000e+00  8.2001110698007073e-07 -5.0160280969671807e-10 0.0000000000000000e+00  8.2401114840472035e-07 -2.2429614986217140e-10 0.0000000000000000e+00  8.2448415347193310e-07 -1.5225810762328178e-10 0.0000000000000000e+00  8.2484595380846443e-07 1.9345763758805882e-10 0.0000000000000000e+00  8.2084777818842918e-07 -7.7744576544849732e-10 0.0000000000000000e+00  7.5549899827108165e-07 -4.6552985700035850e-08 0.0000000000000000e+00  8.4397147002145306e-07 -2.5111413263467039e-08 0.0000000000000000e+00  8.1915643549402760e-07 -8.0973301512962084e-09 0.0000000000000000e+00  8.2430843214744576e-07 -2.5139755146887019e-10 0.0000000000000000e+00  8.2474731626728350e-07 -5.5354899775843981e-10 0.0000000000000000e+00  8.2476869181814982e-07 -1.3068413364721572e-10 0.0000000000000000e+00  5.3797696477392971e-22 -2.1708673997044918e-21 0.0000000000000000e+00  7.7569246791309148e-22 1.6569580667509106e-21 0.0000000000000000e+00  8.2432840837193515e-07 3.9688565280210356e-10 0.0000000000000000e+00  8.2415076144182931e-07 -1.3278298507915987e-09 0.0000000000000000e+00  8.2489600414069010e-07 1.6059611049153027e-10 0.0000000000000000e+00  8.1852636599508637e-07 3.6432127847379718e-10 0.0000000000000000e+00  8.2011161359543036e-07 4.4186817505953031e-10 0.0000000000000000e+00  8.2461598717743666e-07 -1.1083461947979026e-08 0.0000000000000000e+00  8.1416015216392232e-07 -5.1169316975425773e-08 0.0000000000000000e+00  8.0328747219243750e-07 8.7934149320819127e-10 0.0000000000000000e+00  8.1898032892226145e-07 7.1464451015427265e-10 0.0000000000000000e+00  8.1918205614667588e-07 -7.0310933527992722e-11 0.0000000000000000e+00  7.8723878171640885e-07 3.2533702130787362e-10 0.0000000000000000e+00  8.2133979220820071e-07 1.0750412330395972e-08 0.0000000000000000e+00  8.2412782533073090e-07 -1.1498291284389413e-10 0.0000000000000000e+00  8.1602315714978596e-07 9.6802756786142125e-10 0.0000000000000000e+00  6.1406792330537962e-09 -9.7119311039468803e-07 0.0000000000000000e+00  8.2426894753144128e-07 5.0928257735938258e-10 0.0000000000000000e+00  9.0547907995217872e-09 8.3960349342221696e-07 0.0000000000000000e+00  -3.4678046751000054e-20 -3.6952045717444837e-20 0.0000000000000000e+00  -6.9141021346197809e-22 4.8788741216599070e-21 0.0000000000000000e+00  3.2053872333977607e-22 5.6024822159534368e-21 0.0000000000000000e+00  2.8765331087152587e-22 -5.6892648047309181e-21 0.0000000000000000e+00  -7.0146491191767401e-22 -6.1573031157218052e-21 0.0000000000000000e+00  -3.8799365648045499e-20 3.0344731670268881e-20 0.0000000000000000e+00  8.2152708427160999e-07 -5.7056531505361334e-10 0.0000000000000000e+00  7.9234008362233157e-07 -6.5676130108833633e-10 0.0000000000000000e+00  7.9248458565105284e-07 -1.9142893126670859e-09 0.0000000000000000e+00  7.9160579906473750e-07 2.8044551946058006e-10 0.0000000000000000e+00  7.9201141230165776e-07 -1.0830790873233325e-10 0.0000000000000000e+00  7.9134322766365820e-07 8.7015551015034036e-10 0.0000000000000000e+00  8.1727839663518871e-07 1.0821265397446689e-09 0.0000000000000000e+00  8.2080646320983736e-07 1.1945899979116262e-08 0.0000000000000000e+00  8.1753994350933325e-07 -1.4319277326003820e-10 0.0000000000000000e+00  8.2323837809330904e-07 -4.7644152585281632e-10 0.0000000000000000e+00  8.2445300124140014e-07 2.3187284985899037e-10 0.0000000000000000e+00  8.2472024394726783e-07 -1.8149907181780122e-10 0.0000000000000000e+00  -1.5057968034131645e-07 1.2197966408824925e-06 0.0000000000000000e+00  -3.0754362657725521e-07 -1.2715395720565331e-06 0.0000000000000000e+00  7.9391523580216744e-07 -2.7022614848563891e-09 0.0000000000000000e+00  8.1586869730914516e-07 1.0199130987346130e-09 0.0000000000000000e+00  8.2481206134872923e-07 -1.6561554914603765e-10 0.0000000000000000e+00  8.2463461677147317e-07 -1.8833012966399871e-10 0.0000000000000000e+00  5.8139261729556313e-21 6.7261502433394340e-23 0.0000000000000000e+00  7.2931326723958211e-07 5.2836734898317212e-08 0.0000000000000000e+00  3.3934541850722209e-06 3.9793579588820507e-06 0.0000000000000000e+00  3.4504656245744476e-06 -4.2475716362318708e-06 0.0000000000000000e+00  8.2511748653555612e-07 -1.3263659990864870e-10 0.0000000000000000e+00  7.8567227313007478e-07 7.9208235027219282e-10 0.0000000000000000e+00  5.7516169771913813e-21 1.7396827303697047e-23 0.0000000000000000e+00  7.8922525464235879e-07 -1.2685020613379729e-09 0.0000000000000000e+00  8.2512511241131738e-07 1.4558376171444282e-10 0.0000000000000000e+00  8.1386336975459757e-07 6.5499594155331252e-08 0.0000000000000000e+00  8.2370833142947492e-07 3.3762662595421388e-11 0.0000000000000000e+00  5.9762172744574645e-21 -5.8379670295758811e-23 0.0000000000000000e+00  8.2468760280427255e-07 3.3114034416530196e-10 0.0000000000000000e+00  8.2437104884401021e-07 -3.6762441141870007e-10 0.0000000000000000e+00  8.1758392744503000e-07 -2.7863606942816932e-10 0.0000000000000000e+00  8.1979622751806234e-07 1.5626387579892883e-10 0.0000000000000000e+00  8.1776882923384815e-07 -6.2083096987858880e-10 0.0000000000000000e+00  5.6242827836244708e-21 4.8822739821194810e-23 0.0000000000000000e+00  8.2027779031635507e-07 -2.3837661511688447e-10 0.0000000000000000e+00  8.2477332782269022e-07 6.5660998721349562e-10 0.0000000000000000e+00  7.9340028432097368e-07 1.8628414201464907e-09 0.0000000000000000e+00  8.2464293573300644e-07 -3.5680265816083000e-11 0.0000000000000000e+00  8.2477364480009126e-07 -4.1070506816547491e-09 0.0000000000000000e+00  8.2402789227823574e-07 1.1380283182139995e-10 0.0000000000000000e+00  8.2413297572673124e-07 -1.9376861618905412e-10 0.0000000000000000e+00  7.9542205377717136e-07 -1.2458991379293644e-08 0.0000000000000000e+00  8.1973569251684918e-07 5.0020468289602152e-10 0.0000000000000000e+00  8.1941451769971717e-07 -7.3317823209472294e-10 0.0000000000000000e+00  8.1859535551316472e-07 -5.3066842788980117e-10 0.0000000000000000e+00  8.2001497173998225e-07 -1.3419017612044282e-09 0.0000000000000000e+00  8.2397343482649849e-07 2.5400498346353567e-10 0.0000000000000000e+00  6.0863554033794015e-21 -7.2320415305998524e-23 0.0000000000000000e+00  7.6313257614675603e-07 -4.4158697170605956e-07 0.0000000000000000e+00  4.5071380607272697e-07 -8.3117594743249203e-07 0.0000000000000000e+00  1.9215557980947087e-07 -6.2483510416369071e-07 0.0000000000000000e+00  5.8969623186461580e-07 -2.1163258710582939e-07 0.0000000000000000e+00  8.2489589634001583e-07 4.3005485348125662e-11 0.0000000000000000e+00  8.2422017216974487e-07 -4.3494462269586320e-10 0.0000000000000000e+00  8.2411822974171184e-07 7.0010588441375848e-11 0.0000000000000000e+00  8.2409973713375643e-07 -1.5767068830107233e-10 0.0000000000000000e+00  8.2300535751193057e-07 -1.7846795967079313e-09 0.0000000000000000e+00  8.1926935765813587e-07 1.8254313548990545e-09 0.0000000000000000e+00  6.3935632266048548e-21 1.0366921505402920e-23 0.0000000000000000e+00  8.1868119813921852e-07 1.1430563147559298e-09 0.0000000000000000e+00  8.2412784411101126e-07 -2.4412404221891182e-10 0.0000000000000000e+00  8.2410403580588155e-07 3.5565103504067155e-12 0.0000000000000000e+00  8.1849097891637601e-07 7.3473612969095262e-10 0.0000000