<?xml version="1.0"?>
<VTKFile type="UnstructuredGrid"  version="0.1"  >
<UnstructuredGrid>
<Piece  NumberOfPoints="1079" NumberOfCells="1944">
<Points>
<DataArray  type="Float64"  NumberOfComponents="3"  format="ascii">0.08500000000000001 0.02 0  0.005 0.02 0  0.005 0.03 0  0 0.03 0  0 0 0  0.005 0 0  0.005 0.01 0  0.08500000000000001 0.01 0  0 0.015 0  0 0.0075 0  0 0.0225 0  0.04500000000000001 0.02 0  0.04500000000000001 0.01 0  0.025 0.01 0  0.025 0.02 0  0.065 0.02 0  0.065 0.01 0  0.035 0.02 0  0.035 0.01 0  0.07500000000000001 0.02 0  0.07500000000000001 0.01 0  0.015 0.02 0  0.015 0.01 0  0.05500000000000001 0.01 0  0.05500000000000001 0.02 0  0.07000000000000001 0.01 0  0.07000000000000001 0.02 0  0.05 0.01 0  0.03 0.01 0  0.03 0.02 0  0.04000000000000001 0.01 0  0.01 0.01 0  0.02 0.02 0  0.06 0.015 0  0.08500000000000001 0.015 0  0.05 0.02 0  0.07250000000000001 0.015 0  0.04000000000000001 0.02 0  0.03750000000000001 0.015 0  0.0525 0.015 0  0.02 0.01 0  0.01 0.02 0  0.0275 0.015 0  0.0125 0.015 0  0.08000000000000002 0.01 0  0.08000000000000002 0.02 0  0.0325 0.014375 0  0.04291666666666667 0.015 0  0.065 0.015 0  0.005 0.005 0  0.005 0.015 0  0.02208333333333334 0.015 0  0.07791666666666668 0.015 0  0.005 0.025 0  0.06 0.01 0  0.06 0.02 0  0.01729166666666667 0.01572916666666667 0  0.04770833333333334 0.01427083333333334 0  0.06875000000000001 0.01625 0  0.008750000000000001 0.01625 0  0.05625000000000001 0.01625 0  0 0.00375 0  0 0.01875 0  0 0.01125 0  0 0.02625 0  0.08145833333333334 0.01354166666666667 0  0.0675 0.01 0  0.0075 0.0125 0  0.0625 0.0175 0  0.0575 0.0125 0  0.0625 0.0125 0  0.08207465277777778 0.01707465277777778 0  0.06767857142857144 0.01321428571428571 0  0.0175 0.01 0  0.01875 0.01291382575757576 0  0.0475 0.02 0  0.04564168086314595 0.01679860519591141 0  0.00296875 0.0125 0  0.0025 0.03 0  0.0025 0 0  0.00296875 0.0175 0  0.01521990740740741 0.0132349537037037 0  0.0497800925925926 0.0167650462962963 0  0.0325 0.02 0  0.03474264705882353 0.01674632352941176 0  0.03750000000000001 0.02 0  0.03025735294117647 0.01674632352941176 0  0.0275 0.02 0  0.0525 0.02 0  0.0125 0.01 0  0.04020833333333334 0.01322916666666667 0  0.03750000000000001 0.01 0  0.0225 0.02 0  0.02479166666666667 0.01677083333333333 0  0.07520833333333335 0.01322916666666667 0  0.07250000000000001 0.01 0  0.07520833333333335 0.01677083333333334 0  0.07250000000000001 0.02 0  0.04020833333333334 0.01677083333333333 0  0.0225 0.01 0  0.02375 0.01262152777777778 0  0.04250000000000001 0.02 0  0.04250000000000001 0.01 0  0.07750000000000001 0.01 0  0.07750000000000001 0.02 0  0.05036151960784314 0.01294424019607843 0  0.0705560064935065 0.01284699675324675 0  0.05458333333333334 0.01291666666666666 0  0.0021875 0.024375 0  0.005 0.0275 0  0.01125 0.0175 0  0.01463848039215686 0.01705575980392157 0  0.01 0.01375 0  0.03625 0.0125 0  0.0021875 0.009375 0  0.05375000000000001 0.0175 0  0.07125000000000001 0.0175 0  0.005 0.0025 0  0.0021875 0.005625 0  0.02655220103578155 0.01234889948210923 0  0.002187499999999999 0.020625 0  0.02979166666666667 0.01302083333333333 0  0.0525 0.01 0  0.07895833333333334 0.0125 0  0.01994277885235332 0.01704213007736944 0  0.07934656179076068 0.01733823814273861 0  0.04505722114764669 0.01295786992263056 0  0.06625 0.0175 0  0.006250000000000001 0.0175 0  0.05750000000000001 0.02 0  0.05875000000000001 0.0175 0  0.005 0.0225 0  0.005 0.0075 0  0.002375 0.027375 0  0.002375 0.002625000000000001 0  0.0475 0.01 0  0.0175 0.02 0  0.0325 0.01 0  0.03375 0.0121875 0  0.04261299435028249 0.01749205508474576 0  0.08500000000000001 0.0125 0  0.08250000000000002 0.01 0  0.02121963399965531 0.01224824108143494 0  0.0675 0.02 0  0.0125 0.02 0  0.02720152243589744 0.0175 0  0.03715165441176471 0.0175 0  0.08500000000000001 0.0175 0  0.0275 0.01 0  0.0025 0.0149560546875 0  0.0075 0.01 0  0.0075 0.02 0  0.06526785714285716 0.0125 0  0.01281031447005516 0.0125 0  0.0625 0.015 0  0.06 0.0125 0  0.05750000000000001 0.01 0  0.0625 0.02 0  0.0625 0.01 0  0.08250000000000002 0.02 0  0.04260103740101855 0.01252623201412851 0  0.02240052247582197 0.01750164767101344 0  0.07293583459427785 0.01238479732953041 0  0.005234374999999999 0.012265625 0  0.03528131980640358 0.01454684009679821 0  0.0325 0.01760027210036557 0  0.02532593822924343 0.01428227733767297 0  0.08009952069819683 0.01527145502895417 0  0.01987282359856536 0.01482587683689801 0  0.04828232595121382 0.01210233572595705 0  0.01671767404878618 0.01789766427404295 0  0.05125 0.01829007549029352 0  0.05247215456215357 0.01288882122882024 0  0.07338729919678716 0.01799385040160642 0  0.03838729919678716 0.01200614959839357 0  0.07717482110586968 0.01780301674207099 0  0.04771860040890012 0.01773306039388322 0  0.03125 0.01160380747126437 0  0.06875000000000001 0.01154265873015873 0  0.07625000000000001 0.01154065860215054 0  0.01625 0.01153997817696946 0  0.068125 0.018125 0  0.05437500000000001 0.015625 0  0.066875 0.015625 0  0.07039794950204951 0.01494384850614853 0  0.05687500000000001 0.018125 0  0.006875 0.015625 0  0.008749999999999999 0.01833333333333333 0  0.010625 0.015625 0  0.05625 0.01416666666666667 0  0.05812500000000001 0.015625 0  0.0449088595298192 0.01494528408816316 0  0 0.016875 0  0 0.013125 0  0.04962452342047931 0.01478673066448802 0  0.0153754765795207 0.01521326933551198 0  0.0771774565913315 0.01322498191305479 0  0.01857756431135545 0.01840228599899994 0  0.04642243568864456 0.01159771400100006 0  0.08125000000000002 0.01155637254901961 0  0.08317650804863432 0.0118234919513657 0  0.08288217288011697 0.01511353252923977 0  0.02837253504384828 0.0117177464035174 0  0.03896057962520807 0.01831163685754031 0  0.01125 0.0114244162490927 0  0.00935910490099115 0.0119067901980177 0  0.02946078431372549 0.01495404411764706 0  0.02875 0.0185829434466942 0  0.002968749999999999 0.0225 0  0.064375 0.016875 0  0.00296875 0.0075 0  0 0.001875 0  0 0.005625 0  0 0.009375 0  0 0.020625 0  0 0.024375 0  0 0.028125 0  0.06062500000000001 0.01812500000000001 0  0.008303571428571429 0.01446428571428572 0  0.01375 0.01865917058160413 0  0.05137790313978056 0.01143372888932909 0  0.04125000000000001 0.01131513063942604 0  0.04101690263896279 0.01844430285842771 0  0.02399563533148224 0.01844349395710867 0  0.08125000000000002 0.01868815426145731 0  0.05354684380692146 0.01145463537600848 0  0.01699195823639423 0.01315138909884649 0  0.07598357371794873 0.015 0  0.04098357371794872 0.015 0  0.003744047619047619 0.00375 0  0.003344630281690141 0.02580853873239437 0  0.04625 0.0187354532243972 0  0.06388392857142858 0.01138392857142858 0  0.06375 0.01375 0  0.05875 0.01375 0  0.06375 0.02 0  0.00622802734375 0.01372802734375 0  0.003630681818181818 0.001369318181818182 0  0.003630681818181818 0.02863068181818182 0  0.06125 0.01625 0  0.06125 0.01125 0  0.05625000000000001 0.01 0  0.05875 0.01125 0  0.06125 0.01375 0  0.08337864763241221 0.0183786476324122 0  0.05213634138653413 0.01674432930673294 0  0.04375000000000001 0.01 0  0.07424178685897437 0.01529258578431373 0  0.03924178685897436 0.01529258578431372 0  0.03410139294454583 0.01843406022904556 0  0.03089860705545417 0.01843406022904556 0  0.02094160484316717 0.01850229584291991 0  0.04375000000000001 0.02 0  0.04437042160883325 0.01820701498672512 0  0.04816311705429156 0.01600061344661149 0  0.07151224904251052 0.0114127410511319 0  0.04395528506193162 0.01639387970349481 0  0.0128750358694518 0.0167500179347259 0  0.02855808448399799 0.01642839899839741 0  0.02812690373330794 0.01340955081400569 0  0.08358500641945087 0.01351822349116885 0  0.05590277777777778 0.01173611111111111 0  0.06683110430364615 0.01164926404662283 0  0.02573206694914602 0.01842532451809762 0  0.01438126661842046 0.01166701193099454 0  0.02384283211216029 0.01526549696571563 0  0.03625 0.02 0  0.004609375000000001 0.0182421875 0  0.003398437500000001 0.01943359375 0  0.001728307845744682 0.01894718251329787 0  0.004377805359085963 0.01656966216675735 0  0.04649673309852075 0.0153889662370871 0  0.03615513600614297 0.01592654988586041 0  0.03316985071935832 0.01598763605018279 0  0.03110111603888768 0.01529816275177977 0  0.01370614113484869 0.0138804542047638 0  0.04930041102671841 0.01842260568883502 0  0.07875000000000001 0.02 0  0.0745395359848485 0.01165101111925709 0  0.03860755698543604 0.01373741558556884 0  0.02605038706571737 0.01573944002207753 0  0.07559826163500957 0.01841729376139847 0  0.04437500000000001 0.01149157931286774 0  0.06874116707361365 0.01454618473032123 0  0.003761917372881356 0.0239307468220339 0  0.003984374999999999 0.01125 0  0.003768503289473684 0.01392539576480263 0  0.001796875 0.0111328125 0  0.003761917372881356 0.008930746822033899 0  0.005 0.00625 0  0.003761917372881355 0.0210692531779661 0  0.06633928571428571 0.01410714285714285 0  0.006484375 0.01125 0  0.08364120589325512 0.01657288979763549 0  0.03576267476503373 0.0184116442851204 0  0.07370875846579374 0.0137848203678562 0  0.06964285714285715 0.01758928571428571 0  0.05520833333333334 0.01833333333333333 0  0.06491071428571429 0.01839285714285714 0  0.0510098951944636 0.01559941474766356 0  0.01786087179886325 0.0115702210443714 0  0.01972197383235524 0.01160576093166696 0  0.01804697593127788 0.01433503795474974 0  0.001644074528704677 0.01642892723865279 0  0.00125 0.03 0  0.001497685185185185 0.001267746913580247 0  0.07315451164202422 0.01643443118912983 0  0.001233906745910645 0.0140625 0  0.01162635071030191 0.01362229857939618 0  0.01528023503083844 0.01845923557506155 0  0.06625 0.02 0  0.07695012019230771 0.01624387078484555 0  0.03139091092855769 0.01320776147621796 0  0.03857339107781042 0.01675295051810485 0  0.001754993120977522 0.02590789105493891 0  0.002288757784711197 0.00412546923654445 0  0.07914382119690884 0.01404430049871201 0  0.001391810103286306 0.01257390899021902 0  0.0419501201923077 0.01614675005432421 0  0.001484375 0.007018229166666667 0  0.001484375 0.02201822916666666 0  0.048
[...]
<PointData  Vectors="velocity"> 
<DataArray  type="Float64"  Name="velocity"  NumberOfComponents="3" format="ascii">1.2337560434692749e-05 9.2136433509632300e-20 0.0000000000000000e+00  2.5023954314949595e-19 -2.8675518463912193e-19 0.0000000000000000e+00  1.0608591355992609e-17 -5.7223676593502585e-04 0.0000000000000000e+00  -1.1994118882018940e-17 -5.7223676593502477e-04 0.0000000000000000e+00  -1.1745964698253042e-17 5.7223676593502488e-04 0.0000000000000000e+00  1.1291015361348879e-17 5.7223676593502455e-04 0.0000000000000000e+00  2.5022981838747444e-19 2.3276901692885829e-19 0.0000000000000000e+00  1.2669957031092994e-05 -9.4593941823005641e-20 0.0000000000000000e+00  2.6467493966040015e-20 -1.0859754203623289e-21 0.0000000000000000e+00  -2.8452832067100299e-21 2.2477327939742083e-19 0.0000000000000000e+00  1.8038677608248012e-21 -2.5969336081651330e-19 0.0000000000000000e+00  2.4154685425561329e-19 -9.0014554805326247e-22 0.0000000000000000e+00  2.0404625838208309e-19 1.2605566407946442e-21 0.0000000000000000e+00  2.3633059822464515e-19 6.9916278771652256e-22 0.0000000000000000e+00  2.0055464641500847e-19 -8.7133615812468851e-22 0.0000000000000000e+00  2.1699109475700006e-19 6.8499641558918533e-22 0.0000000000000000e+00  2.2728693382054219e-19 3.0712203275234230e-22 0.0000000000000000e+00  1.8597787759243202e-19 -4.5347968865730750e-22 0.0000000000000000e+00  2.6282500150055705e-19 -3.2936170473432604e-22 0.0000000000000000e+00  2.3416397613735900e-19 1.4252218309498707e-21 0.0000000000000000e+00  2.0881871662328135e-19 8.5313353239999260e-22 0.0000000000000000e+00  1.8744781684037096e-19 -5.0022816220550728e-22 0.0000000000000000e+00  1.9296102860155475e-19 -3.9707540047478510e-22 0.0000000000000000e+00  2.4206958485205123e-19 -2.5320848966726941e-21 0.0000000000000000e+00  2.1468509285213575e-19 9.4519302364585034e-22 0.0000000000000000e+00  2.0660598665363923e-19 3.8085724365576053e-22 0.0000000000000000e+00  2.3775703593919913e-19 -9.2253027710783419e-22 0.0000000000000000e+00  2.1897082906298462e-19 7.2303506354198000e-22 0.0000000000000000e+00  2.3301213607242965e-19 1.0038013499767019e-22 0.0000000000000000e+00  1.8957953171410175e-19 -4.7762461013283249e-22 0.0000000000000000e+00  2.1892905928203266e-19 7.2589940530243039e-22 0.0000000000000000e+00  2.3234059733819163e-19 1.2517047154775623e-21 0.0000000000000000e+00  1.9109309172358191e-19 -4.0972902167187174e-22 0.0000000000000000e+00  3.1428485244830541e-05 -4.5842795251727013e-09 0.0000000000000000e+00  3.0182800623430698e-05 7.9088517840597681e-23 0.0000000000000000e+00  1.8795501566104285e-19 1.1319423645848752e-22 0.0000000000000000e+00  3.1427898667102860e-05 1.0595648389292815e-08 0.0000000000000000e+00  2.2586501440992189e-19 -2.1222536193499836e-21 0.0000000000000000e+00  3.1401744671810489e-05 -1.5283211337786085e-08 0.0000000000000000e+00  3.1395741995329497e-05 -1.7159467625799179e-09 0.0000000000000000e+00  2.1914723736635476e-19 8.8085475369827791e-23 0.0000000000000000e+00  2.2603755688230916e-19 -4.3450887270756383e-21 0.0000000000000000e+00  3.1399792279019526e-05 -7.6022208623585661e-10 0.0000000000000000e+00  3.1334307060453062e-05 -1.1277845635865840e-07 0.0000000000000000e+00  1.9851315383755403e-19 -7.3851619731232896e-22 0.0000000000000000e+00  2.1699263110095801e-19 3.8426838124334926e-21 0.0000000000000000e+00  3.1392532059884507e-05 9.3325107449237869e-10 0.0000000000000000e+00  3.1424358393380527e-05 -3.0609789292305594e-09 0.0000000000000000e+00  3.1415863791098846e-05 -2.6447566837341319e-09 0.0000000000000000e+00  -1.5226681104647460e-20 2.8263904795554764e-19 0.0000000000000000e+00  2.3741412933316828e-05 -1.1557751201233115e-06 0.0000000000000000e+00  3.1387598940486145e-05 8.0470116776063229e-09 0.0000000000000000e+00  3.1379336929249277e-05 1.6157837086341802e-09 0.0000000000000000e+00  -2.3330587871305084e-20 -3.3345618881763706e-19 0.0000000000000000e+00  1.9645539548134588e-19 4.3671339713035618e-22 0.0000000000000000e+00  2.3317009156791266e-19 2.8970044593411055e-21 0.0000000000000000e+00  3.1401895482112913e-05 -9.3969318966180997e-09 0.0000000000000000e+00  3.1412402247656838e-05 8.3081521418193942e-09 0.0000000000000000e+00  3.1416114269770213e-05 -8.0073492685693443e-09 0.0000000000000000e+00  3.0921738360047031e-05 -9.7091209451323561e-07 0.0000000000000000e+00  3.1393792056303387e-05 -2.3631979138407522e-08 0.0000000000000000e+00  -1.4211796014884792e-19 4.8531152792631034e-20 0.0000000000000000e+00  1.2791431277968166e-20 -1.3369478060551962e-19 0.0000000000000000e+00  1.7854725089754050e-20 1.3477437648394991e-19 0.0000000000000000e+00  -1.5387751814185201e-19 3.1461946088482751e-20 0.0000000000000000e+00  3.1090651158849411e-05 -3.0063394983666330e-07 0.0000000000000000e+00  1.8716807765750681e-19 -5.7239415196451766e-22 0.0000000000000000e+00  3.0996993021911030e-05 1.8166388490001018e-06 0.0000000000000000e+00  3.1357627500586883e-05 9.8784739179605252e-10 0.0000000000000000e+00  3.1371672884223196e-05 2.6092579721554387e-09 0.0000000000000000e+00  3.1399748041773200e-05 -1.3535987575212984e-08 0.0000000000000000e+00  3.1056702999295769e-05 5.7474234156684614e-07 0.0000000000000000e+00  3.1396260712230493e-05 -6.3568609071286018e-09 0.0000000000000000e+00  2.0939357461068789e-19 -3.6376186020953220e-23 0.0000000000000000e+00  3.1371726223748342e-05 3.0661071770299181e-10 0.0000000000000000e+00  2.5857082628561560e-19 3.7200371128088104e-21 0.0000000000000000e+00  3.1424316382004141e-05 -2.3917488864444853e-08 0.0000000000000000e+00  1.5049813096144797e-05 1.2379959611300335e-05 0.0000000000000000e+00  -6.0629289221629820e-19 -5.7223676593502770e-04 0.0000000000000000e+00  -9.8221010446048362e-19 5.7223676593502824e-04 0.0000000000000000e+00  1.5529003829619130e-05 -1.5172154194098685e-05 0.0000000000000000e+00  3.1360898388527224e-05 -4.1041343504148250e-08 0.0000000000000000e+00  3.1386122116473679e-05 2.8194083876516342e-08 0.0000000000000000e+00  2.0987056781233569e-19 1.9701975020750783e-21 0.0000000000000000e+00  3.1383452150836663e-05 -9.6961262395976125e-09 0.0000000000000000e+00  2.2295737882568751e-19 1.3815841878890334e-21 0.0000000000000000e+00  3.1389513707353139e-05 -9.9578980602706454e-09 0.0000000000000000e+00  2.3741308783996878e-19 4.5499311154732022e-22 0.0000000000000000e+00  2.0649959739112475e-19 -3.6675594712540585e-23 0.0000000000000000e+00  2.3216497473406210e-19 1.3010989107531715e-21 0.0000000000000000e+00  3.1399642050212166e-05 9.7199915106077469e-09 0.0000000000000000e+00  2.2514186301033771e-19 6.8913975325889532e-22 0.0000000000000000e+00  2.1835830510769521e-19 6.1023349327591627e-22 0.0000000000000000e+00  3.1379780574518066e-05 2.5150491218724057e-09 0.0000000000000000e+00  3.1410410633093080e-05 5.0180568933785141e-09 0.0000000000000000e+00  2.2506650310713171e-19 1.0255392271754244e-22 0.0000000000000000e+00  3.1404428049434751e-05 2.1542511483014923e-08 0.0000000000000000e+00  2.4034139381130754e-19 2.5712458724949318e-21 0.0000000000000000e+00  3.1418927570434547e-05 -3.9906664489970278e-08 0.0000000000000000e+00  1.9596201644619066e-19 5.8702195302372108e-23 0.0000000000000000e+00  3.1352929448233134e-05 2.1253142375336264e-08 0.0000000000000000e+00  2.3137451939036096e-19 4.1082123471299886e-23 0.0000000000000000e+00  2.1374360233399886e-19 2.0328292592185670e-21 0.0000000000000000e+00  2.3091384617149482e-19 3.8367877678965898e-21 0.0000000000000000e+00  2.2919803267042403e-19 -1.4682602230217082e-21 0.0000000000000000e+00  3.1406343171654719e-05 2.3768862288100378e-08 0.0000000000000000e+00  3.1413722568177240e-05 3.7132216958614424e-08 0.0000000000000000e+00  3.1404541838190946e-05 3.9038819317312821e-09 0.0000000000000000e+00  -6.2836058775756786e-06 -3.4399210841339885e-05 0.0000000000000000e+00  4.2266338499615112e-20 -4.5506714125523002e-19 0.0000000000000000e+00  3.1506421307594354e-05 -2.5688553716420817e-07 0.0000000000000000e+00  3.1446622544381426e-05 -8.4329851605145726e-08 0.0000000000000000e+00  3.1040568400738709e-05 9.5539849381078087e-08 0.0000000000000000e+00  3.1329844307230308e-05 -3.3691869486260932e-08 0.0000000000000000e+00  5.3007580096377419e-06 2.8231523371572231e-05 0.0000000000000000e+00  3.1356966461407840e-05 -4.4272106731840247e-11 0.0000000000000000e+00  3.1423667361744683e-05 1.0078916152148438e-10 0.0000000000000000e+00  8.1040385622022403e-20 2.4954556183896870e-19 0.0000000000000000e+00  -5.5831513448725997e-06 3.0056541229549291e-05 0.0000000000000000e+00  3.1352658449538919e-05 -2.1544011368440566e-08 0.0000000000000000e+00  5.2525440994533855e-06 -3.2163603361318553e-05 0.0000000000000000e+00  3.1406727677326155e-05 -5.1392811071283480e-09 0.0000000000000000e+00  1.9766337227261196e-19 -1.7680781024149374e-21 0.0000000000000000e+00  3.1346032610663933e-05 -9.6004139606527053e-08 0.0000000000000000e+00  3.1375313058865049e-05 7.8731639449811829e-10 0.0000000000000000e+00  3.1361971527325799e-05 1.4493008750424428e-07 0.0000000000000000e+00  3.1414443156392483e-05 -6.9644720364993704e-09 0.0000000000000000e+00  3.1400858136274135e-05 -3.7119444627613832e-08 0.0000000000000000e+00  3.1304781358213053e-05 -5.7243028393302838e-06 0.0000000000000000e+00  2.2241351971392134e-19 -3.1587235864199239e-21 0.0000000000000000e+00  3.1343648119387736e-05 -1.1010936934158089e-08 0.0000000000000000e+00  2.9772086229006666e-21 -2.9090282727579034e-19 0.0000000000000000e+00  2.6244296241746052e-21 2.5649133117563510e-19 0.0000000000000000e+00  -6.8786164188783976e-05 -7.7909540003970931e-05 0.0000000000000000e+00  -5.6298327172841745e-05 6.4439316419670207e-05 0.0000000000000000e+00  2.2007848104067997e-19 6.3211879894496773e-23 0.0000000000000000e+00  2.4854510936154528e-19 3.6468515418963466e-21 0.0000000000000000e+00  2.0985541277025477e-19 3.7488474112203463e-22 0.0000000000000000e+00  3.1345213155824851e-05 3.8179016766684466e-08 0.0000000000000000e+00  3.1358285747665676e-05 2.3147569946159252e-08 0.0000000000000000e+00  2.8526078105712830e-05 -7.3322472303637998e-21 0.0000000000000000e+00  2.0710684854291618e-19 -7.4444964801063617e-21 0.0000000000000000e+00  3.1358157904104790e-05 9.1064113666793727e-09 0.0000000000000000e+00  2.3266875683218054e-19 1.4854395453178974e-21 0.0000000000000000e+00  2.1535787506801165e-19 -3.9689351975675219e-22 0.0000000000000000e+00  3.1388576165864563e-05 -3.9337650632775568e-09 0.0000000000000000e+00  3.1422780746675568e-05 3.3141550490496503e-09 0.0000000000000000e+00  2.8493545329803371e-05 9.8282226789045803e-21 0.0000000000000000e+00  2.2968901002487871e-19 -2.8123672946835910e-21 0.0000000000000000e+00  1.1678325340877954e-05 -1.0295150751783578e-06 0.0000000000000000e+00  2.3144573820061651e-19 7.6984200324778925e-21 0.0000000000000000e+00  2.5444480212473632e-19 -1.0153923974793173e-20 0.0000000000000000e+00  3.1389995476393890e-05 -1.4099306981050299e-08 0.0000000000000000e+00  3.1286563227272382e-05 -3.2505415664606736e-08 0.0000000000000000e+00  3.1431321294006108e-05 2.1247046915058492e-10 0.0000000000000000e+00  3.1372060356931737e-05 1.9713870287079307e-08 0.0000000000000000e+00  2.3319516953583546e-19 2.5315170401942432e-22 0.0000000000000000e+00  2.6114874406446234e-19 5.6378396456595593e-22 0.0000000000000000e+00  2.2355882156993335e-19 -4.1363384905242620e-21 0.0000000000000000e+00  2.0141023471651893e-19 3.9164844404900825e-21 0.0000000000000000e+00  3.1366027845027829e-05 -5.1123120997069820e-09 0.0000000000000000e+00  3.1369833210815316e-05 1.2158353320764234e-08 0.0000000000000000e+00  3.1362624787859418e-05 -1.0443562428733242e-08 0.0000000000000000e+00  2.8496793125013544e-05 8.5596580769810382e-06 0.0000000000000000e+00  3.1406357429244694e-05 -9.0312062672245129e-09 0.0000000000000000e+00  3.1355150801984575e-05 1.0227467862926324e-08 0.0000000000000000e+00  3.1398674139329917e-05 9.3263116270385940e-09 0.0000000000000000e+00  3.1223786457650267e-05 3.5127430047787890e-08 0.0000000000000000e+00  3.1384380068113554e-05 2.9131357418725952e-09 0.0000000000000000e+00  3.1285119163802486e-05 8.5851438788448707e-09 0.0000000000000000e+00  3.1356226907857889e-05 7.1105498279275543e-09 0.0000000000000000e+00  3.1223751681809999e-05 2.3287834435174829e-09 0.0000000000000000e+00  3.1394178630079476e-05 -3.0124194975586610e-08 0.0000000000000000e+00  3.1300573495372646e-05 1.8506427265579002e-08 0.0000000000000000e+00  3.1271635581353091e-05 -1.1595544389177460e-08 0.0000000000000000e+00  3.1343621232107424e-05 1.2964008511179196e-08 0.0000000000000000e+00  3.1387863085767294e-05 3.9277020251037909e-08 0.0000000000000000e+00  3.1176335170936200e-05 -3.6294421251290528e-08 0.0000000000000000e+00  3.1173489601698540e-05 3.3905581743436809e-08 0.0000000000000000e+00  3.1224664636653078e-05 -4.7643642273494994e-09 0.0000000000000000e+00  3.1162883781973207e-05 -2.1650786763397547e-08 0.0000000000000000e+00  3.1239915080470481e-05 -1.9022006454615879e-08 0.0000000000000000e+00  3.1392230048125352e-05 -8.5558648436928998e-09 0.0000000000000000e+00  3.1410248819762665e-05 -5.8068384797228106e-09 0.0000000000000000e+00  3.1424031143609517e-05 7.3782187644224674e-09 0.0000000000000000e+00  3.1271556845048607e-05 -2.9650571114458554e-08 0.0000000000000000e+00  2.8772429457415601e-05 -1.7101470387182533e-06 0.0000000000000000e+00  3.2118959480637702e-05 -9.3825019139593542e-07 0.0000000000000000e+00  3.1203654338803606e-05 -2.8894654172904984e-07 0.0000000000000000e+00  3.1403558869775901e-05 -9.5829253197838572e-09 0.0000000000000000e+00  3.1420283838811132e-05 -2.1087824002628601e-08 0.0000000000000000e+00  3.1421086622277998e-05 -4.9715704990014699e-09 0.0000000000000000e+00  2.0627980182344865e-20 -8.4332036627821651e-20 0.0000000000000000e+00  2.9883323270427672e-20 6.4808504338384279e-20 0.0000000000000000e+00  3.1404298955878919e-05 1.5115724697766570e-08 0.0000000000000000e+00  3.1397262464459601e-05 -4.6582862540418942e-08 0.0000000000000000e+00  3.1425891140183867e-05 6.0704440503241035e-09 0.0000000000000000e+00  3.1181939031133516e-05 1.4434144690926916e-08 0.0000000000000000e+00  3.1243727642395982e-05 1.6711987932386562e-08 0.0000000000000000e+00  3.1415233548459384e-05 -4.2270843317699504e-07 0.0000000000000000e+00  3.1015953323476713e-05 -1.9500171878768868e-06 0.0000000000000000e+00  3.0601752948536454e-05 3.3553420371392479e-08 0.0000000000000000e+00  3.1200771693647527e-05 2.7212872240775762e-08 0.0000000000000000e+00  3.1208296588788885e-05 -2.7679237360760518e-09 0.0000000000000000e+00  3.0005627248290348e-05 1.7452816328054482e-08 0.0000000000000000e+00  3.1316757759840962e-05 4.2457881029168446e-07 0.0000000000000000e+00  3.1396667930988414e-05 -4.3401935793847277e-09 0.0000000000000000e+00  3.1087951154085482e-05 3.6946017102411658e-08 0.0000000000000000e+00  3.1727337328625477e-07 -3.6745089825344267e-05 0.0000000000000000e+00  3.1402009355115683e-05 1.9424966357389143e-08 0.0000000000000000e+00  4.1537368781724574e-07 3.2188682780638551e-05 0.0000000000000000e+00  -1.2293928659659229e-18 -1.3241641019629341e-18 0.0000000000000000e+00  -2.5302068119306029e-20 1.9787805739941576e-19 0.0000000000000000e+00  1.2063228923073392e-20 2.1220100305375732e-19 0.0000000000000000e+00  1.1596128496148144e-20 -2.1347396866042811e-19 0.0000000000000000e+00  -2.4525291735195714e-20 -2.3943335660123271e-19 0.0000000000000000e+00  -1.3738461983624121e-18 1.1470518622173297e-18 0.0000000000000000e+00  3.1297602333449098e-05 -2.1722640296298587e-08 0.0000000000000000e+00  3.0193469150586324e-05 1.5498926885057376e-08 0.0000000000000000e+00  3.0184596305645410e-05 -7.0046630456470012e-08 0.0000000000000000e+00  3.0157790808400348e-05 9.9756037875739941e-09 0.0000000000000000e+00  3.0173191175458098e-05 -4.3940880194205467e-09 0.0000000000000000e+00  3.0147372100966458e-05 3.3839786598085473e-08 0.0000000000000000e+00  3.1135381446710765e-05 4.1319976064931701e-08 0.0000000000000000e+00  3.1270360827985347e-05 4.5530972607661596e-07 0.0000000000000000e+00  3.1145627483313438e-05 -5.2199591598658146e-09 0.0000000000000000e+00  3.1364130562545110e-05 -1.6191016327782918e-08 0.0000000000000000e+00  3.1409035573822632e-05 8.8259298722835731e-09 0.0000000000000000e+00  3.1419247866510193e-05 -6.9131596078191580e-09 0.0000000000000000e+00  -5.3389823101948833e-06 4.5962429442294264e-05 0.0000000000000000e+00  -1.0945987382538427e-05 -4.7605222319577403e-05 0.0000000000000000e+00  3.0244725659031119e-05 -1.0297384642170315e-07 0.0000000000000000e+00  3.1081894519121131e-05 3.9003446813003933e-08 0.0000000000000000e+00  3.1422727669208518e-05 -6.3101626389277463e-09 0.0000000000000000e+00  3.1415995332697789e-05 -7.1637781496010798e-09 0.0000000000000000e+00  2.1661122779983499e-19 2.5905491259996449e-21 0.0000000000000000e+00  2.7810929027312135e-05 2.0859453386442737e-06 0.0000000000000000e+00  1.2757233862450149e-04 1.4779310946121284e-04 0.0000000000000000e+00  1.2848514686727847e-04 -1.5697737062490084e-04 0.0000000000000000e+00  3.1434358369638426e-05 -5.0360129514994241e-09 0.0000000000000000e+00  2.9930631030039531e-05 2.9990862038522485e-08 0.0000000000000000e+00  2.2284487415155923e-19 6.2716954251863413e-22 0.0000000000000000e+00  3.0067078305476773e-05 -4.8758144740007620e-08 0.0000000000000000e+00  3.1434671942699260e-05 5.5412655556989825e-09 0.0000000000000000e+00  3.1005888728876772e-05 2.4950366586817281e-06 0.0000000000000000e+00  3.1380683318635054e-05 1.2752192881400499e-09 0.0000000000000000e+00  2.3125655851133610e-19 -2.1151928383126324e-21 0.0000000000000000e+00  3.1417984238134564e-05 1.2613389907741402e-08 0.0000000000000000e+00  3.1405940974358540e-05 -1.4002174098821181e-08 0.0000000000000000e+00  3.1147344473010275e-05 -1.0705346764019379e-08 0.0000000000000000e+00  3.1231634605941777e-05 5.9721847972659148e-09 0.0000000000000000e+00  3.1153813792078421e-05 -2.3315561677044986e-08 0.0000000000000000e+00  2.2378907900072779e-19 1.8258799055263310e-21 0.0000000000000000e+00  3.1249886570211510e-05 -9.1595393861905202e-09 0.0000000000000000e+00  3.1421248509540497e-05 2.5025017494730533e-08 0.0000000000000000e+00  3.0226140621841267e-05 7.0483163893452145e-08 0.0000000000000000e+00  3.1416299212666734e-05 -1.3517713524030596e-09 0.0000000000000000e+00  3.1416152979476775e-05 -1.4853882720158226e-07 0.0000000000000000e+00  3.1392841873083636e-05 4.3837656626513299e-09 0.0000000000000000e+00  3.1396883491489937e-05 -7.3480107769247951e-09 0.0000000000000000e+00  3.0302116366196913e-05 -4.7556949769688984e-07 0.0000000000000000e+00  3.1229438024771926e-05 1.8948353242909871e-08 0.0000000000000000e+00  3.1217024612751944e-05 -2.8062497839570967e-08 0.0000000000000000e+00  3.1185880057211052e-05 -2.0040345730871206e-08 0.0000000000000000e+00  3.1244637512381116e-05 -4.8531856867572359e-08 0.0000000000000000e+00  3.1390770683510020e-05 9.9113562541749663e-09 0.0000000000000000e+00  2.3262821769479340e-19 -2.7285634656127580e-21 0.0000000000000000e+00  2.8997845146129001e-05 -1.6699368705754947e-05 0.0000000000000000e+00  1.7116807434798672e-05 -3.1459985967126294e-05 0.0000000000000000e+00  7.3061768742839265e-06 -2.3627904660549085e-05 0.0000000000000000e+00  2.2437175020899275e-05 -7.9485801163703574e-06 0.0000000000000000e+00  3.1425930456367314e-05 1.6505979046481500e-09 0.0000000000000000e+00  3.1400193405979163e-05 -1.6572557584589480e-08 0.0000000000000000e+00  3.1396301782536795e-05 2.6758030493772425e-09 0.0000000000000000e+00  3.1395600117616876e-05 -5.9790807449821622e-09 0.0000000000000000e+00  3.1356531514706227e-05 -6.1459123110515926e-08 0.0000000000000000e+00  3.1211348818566028e-05 6.9470473980844229e-08 0.0000000000000000e+00  2.5091719832713392e-19 6.3332465923916013e-22 0.0000000000000000e+00  3.1189328004922494e-05 4.3444730680113905e-08 0.0000000000000000e+00  3.1396676117165526e-05 -9.2938150245313655e-09 0.0000000000000000e+00  3.1395733879774977e-05 2.4194854108815381e-10 0.0000000000000000e+00  3.1181941639325343e-05 2.7932227141630633e-08 0.0000000000