<?xml version="1.0"?>
<VTKFile type="UnstructuredGrid"  version="0.1"  >
<UnstructuredGrid>
<Piece  NumberOfPoints="1079" NumberOfCells="1944">
<Points>
<DataArray  type="Float64"  NumberOfComponents="3"  format="ascii">0.08500000000000001 0.02 0  0.005 0.02 0  0.005 0.03 0  0 0.03 0  0 0 0  0.005 0 0  0.005 0.01 0  0.08500000000000001 0.01 0  0 0.015 0  0 0.0075 0  0 0.0225 0  0.04500000000000001 0.02 0  0.04500000000000001 0.01 0  0.025 0.01 0  0.025 0.02 0  0.065 0.02 0  0.065 0.01 0  0.035 0.02 0  0.035 0.01 0  0.07500000000000001 0.02 0  0.07500000000000001 0.01 0  0.015 0.02 0  0.015 0.01 0  0.05500000000000001 0.01 0  0.05500000000000001 0.02 0  0.07000000000000001 0.01 0  0.07000000000000001 0.02 0  0.05 0.01 0  0.03 0.01 0  0.03 0.02 0  0.04000000000000001 0.01 0  0.01 0.01 0  0.02 0.02 0  0.06 0.015 0  0.08500000000000001 0.015 0  0.05 0.02 0  0.07250000000000001 0.015 0  0.04000000000000001 0.02 0  0.03750000000000001 0.015 0  0.0525 0.015 0  0.02 0.01 0  0.01 0.02 0  0.0275 0.015 0  0.0125 0.015 0  0.08000000000000002 0.01 0  0.08000000000000002 0.02 0  0.0325 0.014375 0  0.04291666666666667 0.015 0  0.065 0.015 0  0.005 0.005 0  0.005 0.015 0  0.02208333333333334 0.015 0  0.07791666666666668 0.015 0  0.005 0.025 0  0.06 0.01 0  0.06 0.02 0  0.01729166666666667 0.01572916666666667 0  0.04770833333333334 0.01427083333333334 0  0.06875000000000001 0.01625 0  0.008750000000000001 0.01625 0  0.05625000000000001 0.01625 0  0 0.00375 0  0 0.01875 0  0 0.01125 0  0 0.02625 0  0.08145833333333334 0.01354166666666667 0  0.0675 0.01 0  0.0075 0.0125 0  0.0625 0.0175 0  0.0575 0.0125 0  0.0625 0.0125 0  0.08207465277777778 0.01707465277777778 0  0.06767857142857144 0.01321428571428571 0  0.0175 0.01 0  0.01875 0.01291382575757576 0  0.0475 0.02 0  0.04564168086314595 0.01679860519591141 0  0.00296875 0.0125 0  0.0025 0.03 0  0.0025 0 0  0.00296875 0.0175 0  0.01521990740740741 0.0132349537037037 0  0.0497800925925926 0.0167650462962963 0  0.0325 0.02 0  0.03474264705882353 0.01674632352941176 0  0.03750000000000001 0.02 0  0.03025735294117647 0.01674632352941176 0  0.0275 0.02 0  0.0525 0.02 0  0.0125 0.01 0  0.04020833333333334 0.01322916666666667 0  0.03750000000000001 0.01 0  0.0225 0.02 0  0.02479166666666667 0.01677083333333333 0  0.07520833333333335 0.01322916666666667 0  0.07250000000000001 0.01 0  0.07520833333333335 0.01677083333333334 0  0.07250000000000001 0.02 0  0.04020833333333334 0.01677083333333333 0  0.0225 0.01 0  0.02375 0.01262152777777778 0  0.04250000000000001 0.02 0  0.04250000000000001 0.01 0  0.07750000000000001 0.01 0  0.07750000000000001 0.02 0  0.05036151960784314 0.01294424019607843 0  0.0705560064935065 0.01284699675324675 0  0.05458333333333334 0.01291666666666666 0  0.0021875 0.024375 0  0.005 0.0275 0  0.01125 0.0175 0  0.01463848039215686 0.01705575980392157 0  0.01 0.01375 0  0.03625 0.0125 0  0.0021875 0.009375 0  0.05375000000000001 0.0175 0  0.07125000000000001 0.0175 0  0.005 0.0025 0  0.0021875 0.005625 0  0.02655220103578155 0.01234889948210923 0  0.002187499999999999 0.020625 0  0.02979166666666667 0.01302083333333333 0  0.0525 0.01 0  0.07895833333333334 0.0125 0  0.01994277885235332 0.01704213007736944 0  0.07934656179076068 0.01733823814273861 0  0.04505722114764669 0.01295786992263056 0  0.06625 0.0175 0  0.006250000000000001 0.0175 0  0.05750000000000001 0.02 0  0.05875000000000001 0.0175 0  0.005 0.0225 0  0.005 0.0075 0  0.002375 0.027375 0  0.002375 0.002625000000000001 0  0.0475 0.01 0  0.0175 0.02 0  0.0325 0.01 0  0.03375 0.0121875 0  0.04261299435028249 0.01749205508474576 0  0.08500000000000001 0.0125 0  0.08250000000000002 0.01 0  0.02121963399965531 0.01224824108143494 0  0.0675 0.02 0  0.0125 0.02 0  0.02720152243589744 0.0175 0  0.03715165441176471 0.0175 0  0.08500000000000001 0.0175 0  0.0275 0.01 0  0.0025 0.0149560546875 0  0.0075 0.01 0  0.0075 0.02 0  0.06526785714285716 0.0125 0  0.01281031447005516 0.0125 0  0.0625 0.015 0  0.06 0.0125 0  0.05750000000000001 0.01 0  0.0625 0.02 0  0.0625 0.01 0  0.08250000000000002 0.02 0  0.04260103740101855 0.01252623201412851 0  0.02240052247582197 0.01750164767101344 0  0.07293583459427785 0.01238479732953041 0  0.005234374999999999 0.012265625 0  0.03528131980640358 0.01454684009679821 0  0.0325 0.01760027210036557 0  0.02532593822924343 0.01428227733767297 0  0.08009952069819683 0.01527145502895417 0  0.01987282359856536 0.01482587683689801 0  0.04828232595121382 0.01210233572595705 0  0.01671767404878618 0.01789766427404295 0  0.05125 0.01829007549029352 0  0.05247215456215357 0.01288882122882024 0  0.07338729919678716 0.01799385040160642 0  0.03838729919678716 0.01200614959839357 0  0.07717482110586968 0.01780301674207099 0  0.04771860040890012 0.01773306039388322 0  0.03125 0.01160380747126437 0  0.06875000000000001 0.01154265873015873 0  0.07625000000000001 0.01154065860215054 0  0.01625 0.01153997817696946 0  0.068125 0.018125 0  0.05437500000000001 0.015625 0  0.066875 0.015625 0  0.07039794950204951 0.01494384850614853 0  0.05687500000000001 0.018125 0  0.006875 0.015625 0  0.008749999999999999 0.01833333333333333 0  0.010625 0.015625 0  0.05625 0.01416666666666667 0  0.05812500000000001 0.015625 0  0.0449088595298192 0.01494528408816316 0  0 0.016875 0  0 0.013125 0  0.04962452342047931 0.01478673066448802 0  0.0153754765795207 0.01521326933551198 0  0.0771774565913315 0.01322498191305479 0  0.01857756431135545 0.01840228599899994 0  0.04642243568864456 0.01159771400100006 0  0.08125000000000002 0.01155637254901961 0  0.08317650804863432 0.0118234919513657 0  0.08288217288011697 0.01511353252923977 0  0.02837253504384828 0.0117177464035174 0  0.03896057962520807 0.01831163685754031 0  0.01125 0.0114244162490927 0  0.00935910490099115 0.0119067901980177 0  0.02946078431372549 0.01495404411764706 0  0.02875 0.0185829434466942 0  0.002968749999999999 0.0225 0  0.064375 0.016875 0  0.00296875 0.0075 0  0 0.001875 0  0 0.005625 0  0 0.009375 0  0 0.020625 0  0 0.024375 0  0 0.028125 0  0.06062500000000001 0.01812500000000001 0  0.008303571428571429 0.01446428571428572 0  0.01375 0.01865917058160413 0  0.05137790313978056 0.01143372888932909 0  0.04125000000000001 0.01131513063942604 0  0.04101690263896279 0.01844430285842771 0  0.02399563533148224 0.01844349395710867 0  0.08125000000000002 0.01868815426145731 0  0.05354684380692146 0.01145463537600848 0  0.01699195823639423 0.01315138909884649 0  0.07598357371794873 0.015 0  0.04098357371794872 0.015 0  0.003744047619047619 0.00375 0  0.003344630281690141 0.02580853873239437 0  0.04625 0.0187354532243972 0  0.06388392857142858 0.01138392857142858 0  0.06375 0.01375 0  0.05875 0.01375 0  0.06375 0.02 0  0.00622802734375 0.01372802734375 0  0.003630681818181818 0.001369318181818182 0  0.003630681818181818 0.02863068181818182 0  0.06125 0.01625 0  0.06125 0.01125 0  0.05625000000000001 0.01 0  0.05875 0.01125 0  0.06125 0.01375 0  0.08337864763241221 0.0183786476324122 0  0.05213634138653413 0.01674432930673294 0  0.04375000000000001 0.01 0  0.07424178685897437 0.01529258578431373 0  0.03924178685897436 0.01529258578431372 0  0.03410139294454583 0.01843406022904556 0  0.03089860705545417 0.01843406022904556 0  0.02094160484316717 0.01850229584291991 0  0.04375000000000001 0.02 0  0.04437042160883325 0.01820701498672512 0  0.04816311705429156 0.01600061344661149 0  0.07151224904251052 0.0114127410511319 0  0.04395528506193162 0.01639387970349481 0  0.0128750358694518 0.0167500179347259 0  0.02855808448399799 0.01642839899839741 0  0.02812690373330794 0.01340955081400569 0  0.08358500641945087 0.01351822349116885 0  0.05590277777777778 0.01173611111111111 0  0.06683110430364615 0.01164926404662283 0  0.02573206694914602 0.01842532451809762 0  0.01438126661842046 0.01166701193099454 0  0.02384283211216029 0.01526549696571563 0  0.03625 0.02 0  0.004609375000000001 0.0182421875 0  0.003398437500000001 0.01943359375 0  0.001728307845744682 0.01894718251329787 0  0.004377805359085963 0.01656966216675735 0  0.04649673309852075 0.0153889662370871 0  0.03615513600614297 0.01592654988586041 0  0.03316985071935832 0.01598763605018279 0  0.03110111603888768 0.01529816275177977 0  0.01370614113484869 0.0138804542047638 0  0.04930041102671841 0.01842260568883502 0  0.07875000000000001 0.02 0  0.0745395359848485 0.01165101111925709 0  0.03860755698543604 0.01373741558556884 0  0.02605038706571737 0.01573944002207753 0  0.07559826163500957 0.01841729376139847 0  0.04437500000000001 0.01149157931286774 0  0.06874116707361365 0.01454618473032123 0  0.003761917372881356 0.0239307468220339 0  0.003984374999999999 0.01125 0  0.003768503289473684 0.01392539576480263 0  0.001796875 0.0111328125 0  0.003761917372881356 0.008930746822033899 0  0.005 0.00625 0  0.003761917372881355 0.0210692531779661 0  0.06633928571428571 0.01410714285714285 0  0.006484375 0.01125 0  0.08364120589325512 0.01657288979763549 0  0.03576267476503373 0.0184116442851204 0  0.07370875846579374 0.0137848203678562 0  0.06964285714285715 0.01758928571428571 0  0.05520833333333334 0.01833333333333333 0  0.06491071428571429 0.01839285714285714 0  0.0510098951944636 0.01559941474766356 0  0.01786087179886325 0.0115702210443714 0  0.01972197383235524 0.01160576093166696 0  0.01804697593127788 0.01433503795474974 0  0.001644074528704677 0.01642892723865279 0  0.00125 0.03 0  0.001497685185185185 0.001267746913580247 0  0.07315451164202422 0.01643443118912983 0  0.001233906745910645 0.0140625 0  0.01162635071030191 0.01362229857939618 0  0.01528023503083844 0.01845923557506155 0  0.06625 0.02 0  0.07695012019230771 0.01624387078484555 0  0.03139091092855769 0.01320776147621796 0  0.03857339107781042 0.01675295051810485 0  0.001754993120977522 0.02590789105493891 0  0.002288757784711197 0.00412546923654445 0  0.07914382119690884 0.01404430049871201 0  0.001391810103286306 0.01257390899021902 0  0.0419501201923077 0.01614675005432421 0  0.001484375 0.007018229166666667 0  0.001484375 0.02201822916666666 0  0.048
[...]
<PointData  Vectors="velocity"> 
<DataArray  type="Float64"  Name="velocity"  NumberOfComponents="3" format="ascii">2.4446357371779689e-07 1.8684582593376232e-21 0.0000000000000000e+00  5.2804481565880761e-21 -5.7335374581597218e-21 0.0000000000000000e+00  2.1713491079517034e-19 -1.2045035402587892e-05 0.0000000000000000e+00  -2.5849394142282197e-19 -1.2045035402587875e-05 0.0000000000000000e+00  -2.3781442610899647e-19 1.2045035402587877e-05 0.0000000000000000e+00  2.3846066096255357e-19 1.2045035402587865e-05 0.0000000000000000e+00  4.8159691439672939e-21 4.7228976622612606e-21 0.0000000000000000e+00  2.5107206780927917e-07 -1.7798816078052337e-21 0.0000000000000000e+00  5.5561533134816825e-22 -2.5057935753273213e-23 0.0000000000000000e+00  -6.3967697992581604e-23 4.5790636931009614e-21 0.0000000000000000e+00  2.2306069354163115e-23 -5.2449927444549187e-21 0.0000000000000000e+00  4.8112888527365766e-21 -1.7239439404299102e-23 0.0000000000000000e+00  4.0047877042987750e-21 2.4013205575035923e-23 0.0000000000000000e+00  4.8873515257854001e-21 1.3151727196123907e-23 0.0000000000000000e+00  3.8613734043752432e-21 -1.6558525186510468e-23 0.0000000000000000e+00  4.3366679548092308e-21 1.3167084876995357e-23 0.0000000000000000e+00  4.5376878321433192e-21 5.7515169074113977e-24 0.0000000000000000e+00  3.5621148953396197e-21 -7.5795966922258774e-24 0.0000000000000000e+00  5.4046077089712060e-21 -5.5587797443001525e-24 0.0000000000000000e+00  4.4752638706161048e-21 2.7755303884192386e-23 0.0000000000000000e+00  4.0430254237523903e-21 1.6747425000923642e-23 0.0000000000000000e+00  3.8278328933986642e-21 -1.1044439722608007e-23 0.0000000000000000e+00  3.8595622532019485e-21 -9.4309227727302698e-24 0.0000000000000000e+00  4.4097391790287766e-21 -4.9888321100440210e-23 0.0000000000000000e+00  4.1759642232094919e-21 1.8498936350269743e-23 0.0000000000000000e+00  4.2075657394350687e-21 6.7301782268038039e-24 0.0000000000000000e+00  5.0261138112146874e-21 -1.7916317103572612e-23 0.0000000000000000e+00  4.3868282809501848e-21 1.5975366720099487e-23 0.0000000000000000e+00  4.5415228644891869e-21 2.1195129855926985e-24 0.0000000000000000e+00  3.7188918575188237e-21 -1.0086416388271291e-23 0.0000000000000000e+00  4.1619826398273419e-21 1.4806951393927633e-23 0.0000000000000000e+00  4.3412598591185542e-21 2.4934827696918961e-23 0.0000000000000000e+00  3.8412738393127044e-21 -8.8359065997306095e-24 0.0000000000000000e+00  6.2379348226096845e-07 -9.1220865691238879e-11 0.0000000000000000e+00  5.9911139478523750e-07 1.3745722279906081e-24 0.0000000000000000e+00  3.8073746111119547e-21 2.7085318162781483e-24 0.0000000000000000e+00  6.2378201127355134e-07 2.1029306577328381e-10 0.0000000000000000e+00  4.4609514280545900e-21 -4.1471761387200552e-23 0.0000000000000000e+00  6.2326273678171057e-07 -3.0340603791702876e-10 0.0000000000000000e+00  6.2314373059080478e-07 -3.3926719572411981e-11 0.0000000000000000e+00  4.1338492799838617e-21 1.7466791868058153e-24 0.0000000000000000e+00  4.4612675700455754e-21 -8.7134132227452651e-23 0.0000000000000000e+00  6.2322411260599112e-07 -1.6437539193076419e-11 0.0000000000000000e+00  6.2192429513947495e-07 -2.4510928241960104e-09 0.0000000000000000e+00  4.0064503704193851e-21 -1.5397774231072484e-23 0.0000000000000000e+00  4.2970400490990886e-21 7.9481423675262784e-23 0.0000000000000000e+00  6.2307982446962756e-07 1.8224700459600171e-11 0.0000000000000000e+00  6.2371146644013964e-07 -6.0825210096580845e-11 0.0000000000000000e+00  6.2354332912811732e-07 -5.2469340766177536e-11 0.0000000000000000e+00  -3.3121763432290741e-22 5.5731643258840383e-21 0.0000000000000000e+00  4.7118904105837978e-07 -2.4910991921895960e-08 0.0000000000000000e+00  6.2298206947370495e-07 1.5090145451662570e-10 0.0000000000000000e+00  6.2281984382202861e-07 3.2062151831958083e-11 0.0000000000000000e+00  -4.9093197074343900e-22 -6.6619129655423122e-21 0.0000000000000000e+00  3.9783833172106428e-21 6.2320011512460506e-24 0.0000000000000000e+00  4.7241908243412693e-21 5.5118934768575968e-23 0.0000000000000000e+00  6.2327780113443458e-07 -2.2795181633678469e-10 0.0000000000000000e+00  6.2347456561470526e-07 1.6487589121477020e-10 0.0000000000000000e+00  6.2354797694174003e-07 -1.5910718263048916e-10 0.0000000000000000e+00  6.1400405214248063e-07 -1.9936023336730257e-08 0.0000000000000000e+00  6.2310454345802489e-07 -4.6871948616113099e-10 0.0000000000000000e+00  -2.5787640678097083e-21 7.8248859518051475e-22 0.0000000000000000e+00  2.5843985174306484e-22 -2.4180669865510291e-21 0.0000000000000000e+00  3.4872509940925875e-22 2.6188130045959821e-21 0.0000000000000000e+00  -3.1819468203124600e-21 9.6530970953299350e-22 0.0000000000000000e+00  6.1709551241190726e-07 -5.9606743136414706e-09 0.0000000000000000e+00  3.8138232198121366e-21 -1.1123205684184430e-23 0.0000000000000000e+00  6.1444137175878200e-07 3.5277528719581920e-08 0.0000000000000000e+00  6.2238631922391844e-07 1.7108451210130149e-11 0.0000000000000000e+00  6.2266473203161027e-07 5.2785775165702820e-11 0.0000000000000000e+00  6.2322269432968086e-07 -2.6725475656040671e-10 0.0000000000000000e+00  6.1642305529652339e-07 1.1397806273383748e-08 0.0000000000000000e+00  6.2315417310015806e-07 -1.2630617376304137e-10 0.0000000000000000e+00  4.1538664946149109e-21 -7.2386849549797731e-25 0.0000000000000000e+00  6.2265046853362651e-07 -1.3901105026884045e-11 0.0000000000000000e+00  5.4508044947921083e-21 7.3252140139114463e-23 0.0000000000000000e+00  6.2371050529530051e-07 -4.7526129352935543e-10 0.0000000000000000e+00  2.9801108349761361e-07 2.4269960626698100e-07 0.0000000000000000e+00  -1.3621644339881592e-20 -1.2045035402587926e-05 0.0000000000000000e+00  -2.0802913061899332e-20 1.2045035402587939e-05 0.0000000000000000e+00  3.0881788198500050e-07 -3.0409724017204941e-07 0.0000000000000000e+00  6.2240322304199421e-07 -8.8597969356854147e-10 0.0000000000000000e+00  6.2295345448627562e-07 5.5996002744546767e-10 0.0000000000000000e+00  4.2868232606497619e-21 3.6482398628743083e-23 0.0000000000000000e+00  6.2289986487928291e-07 -1.9212739884203701e-10 0.0000000000000000e+00  4.5040829173322744e-21 2.7376587460976240e-23 0.0000000000000000e+00  6.2302006306173551e-07 -1.9806687628247916e-10 0.0000000000000000e+00  4.6883799126933985e-21 9.0499938390240330e-24 0.0000000000000000e+00  4.1892482394446662e-21 -7.4421262720165261e-25 0.0000000000000000e+00  4.5440458836924641e-21 2.4553984633896325e-23 0.0000000000000000e+00  6.2322122611184026e-07 1.9280931997367097e-10 0.0000000000000000e+00  4.0925021492685663e-21 1.3496982360404840e-23 0.0000000000000000e+00  4.6756149040709812e-21 1.2147432794444385e-23 0.0000000000000000e+00  6.2282875164817576e-07 4.7303497646636382e-11 0.0000000000000000e+00  6.2343514483934585e-07 9.9269969087387016e-11 0.0000000000000000e+00  4.3374382770789588e-21 5.0623277332119009e-24 0.0000000000000000e+00  6.2331571826407605e-07 4.2770560703277943e-10 0.0000000000000000e+00  4.9607728021208759e-21 4.9819621511723850e-23 0.0000000000000000e+00  6.2360407184363740e-07 -7.9154216582501295e-10 0.0000000000000000e+00  3.9823569293129234e-21 1.4675548825593026e-24 0.0000000000000000e+00  6.2228938021304845e-07 4.1923572881899634e-10 0.0000000000000000e+00  4.6246733279120445e-21 -3.6680467385089185e-25 0.0000000000000000e+00  4.1187769022741969e-21 3.9859930481653877e-23 0.0000000000000000e+00  4.5232452741369918e-21 7.7224186644958370e-23 0.0000000000000000e+00  4.7608527834975452e-21 -2.8474197637411532e-23 0.0000000000000000e+00  6.2335476937625592e-07 4.7225556558498562e-10 0.0000000000000000e+00  6.2350041932612333e-07 7.3714479403107657e-10 0.0000000000000000e+00  6.2331861391473533e-07 7.6840338450027125e-11 0.0000000000000000e+00  -1.3174632281924420e-07 -6.8553404065057759e-07 0.0000000000000000e+00  8.8102623973913013e-22 -9.6726653182416365e-21 0.0000000000000000e+00  6.2558406124560841e-07 -5.3249209886319123e-09 0.0000000000000000e+00  6.2421898815239726e-07 -1.7537648133013645e-09 0.0000000000000000e+00  6.1588955357514523e-07 1.4594662219814394e-09 0.0000000000000000e+00  6.2183229216061127e-07 -6.6757894397151717e-10 0.0000000000000000e+00  1.0445737173627801e-07 5.5612138460748909e-07 0.0000000000000000e+00  6.2237548892921757e-07 -1.1336468721509702e-12 0.0000000000000000e+00  6.2369826941827644e-07 -7.3481431368271504e-13 0.0000000000000000e+00  1.8570545624793367e-21 5.2149913861353954e-21 0.0000000000000000e+00  -1.1602999556013316e-07 5.9104663703431459e-07 0.0000000000000000e+00  6.2228888943215916e-07 -4.2639339477364108e-10 0.0000000000000000e+00  1.0414207186678573e-07 -6.4245072752000314e-07 0.0000000000000000e+00  6.2336142841961418e-07 -1.0397105801413663e-10 0.0000000000000000e+00  4.0718638171091863e-21 -3.3873145867881215e-23 0.0000000000000000e+00  6.2215025411466276e-07 -1.8992382211332321e-09 0.0000000000000000e+00  6.2274893471006606e-07 2.3197708006584107e-12 0.0000000000000000e+00  6.2247400298418304e-07 2.8729310387481416e-09 0.0000000000000000e+00  6.2351499482499814e-07 -1.3883408225243967e-10 0.0000000000000000e+00  6.2324601897590857e-07 -7.3614135874387864e-10 0.0000000000000000e+00  6.2234666246549143e-07 -1.1495286383032714e-07 0.0000000000000000e+00  4.5719906814868054e-21 -6.1927581131148855e-23 0.0000000000000000e+00  6.2211282984095114e-07 -2.2248803282060957e-10 0.0000000000000000e+00  5.9213923887009320e-23 -5.7877541676745786e-21 0.0000000000000000e+00  4.4777850169599295e-23 5.0398575851823771e-21 0.0000000000000000e+00  -1.4410577912772239e-06 -1.5703066557721905e-06 0.0000000000000000e+00  -1.1705897864321669e-06 1.2883014856383723e-06 0.0000000000000000e+00  4.1322508913888175e-21 1.4109794619307315e-24 0.0000000000000000e+00  4.9414718170595123e-21 7.1800502624754712e-23 0.0000000000000000e+00  4.2057428286692846e-21 6.8541809918969738e-24 0.0000000000000000e+00  6.2214205301729114e-07 7.5849326050714121e-10 0.0000000000000000e+00  6.2240235533330411e-07 4.5725525828811272e-10 0.0000000000000000e+00  5.6619357783874205e-07 -1.4837746444887079e-22 0.0000000000000000e+00  4.3040986073420081e-21 -1.4994602787152133e-22 0.0000000000000000e+00  6.2238950545307518e-07 1.7426731511539704e-10 0.0000000000000000e+00  4.3411727694627697e-21 3.0210616475733695e-23 0.0000000000000000e+00  4.2968037573665784e-21 -8.6281199947120046e-24 0.0000000000000000e+00  6.2300334016220760e-07 -7.9612764202243026e-11 0.0000000000000000e+00  6.2367952707767527e-07 6.6919619654212965e-11 0.0000000000000000e+00  5.6554687004450778e-07 1.9794215048728322e-22 0.0000000000000000e+00  4.3387955420707570e-21 -5.4748227241953607e-23 0.0000000000000000e+00  2.3177192127740596e-07 -2.3191363204394773e-08 0.0000000000000000e+00  4.4382350365175042e-21 1.4104923269025054e-22 0.0000000000000000e+00  5.4695393572500057e-21 -2.0667883171280798e-22 0.0000000000000000e+00  6.2303001209375737e-07 -2.7898566878121382e-10 0.0000000000000000e+00  6.2083770032899629e-07 -7.6887013232076762e-10 0.0000000000000000e+00  6.2385008147124386e-07 4.2880187618853356e-12 0.0000000000000000e+00  6.2267275642414714e-07 3.9307431945986019e-10 0.0000000000000000e+00  4.4589092321455563e-21 5.1691068779581731e-24 0.0000000000000000e+00  5.1349472147506639e-21 1.1719381569658431e-23 0.0000000000000000e+00  4.1944080373674755e-21 -8.1764992940894519e-23 0.0000000000000000e+00  4.0641153604645209e-21 8.8988807146283039e-23 0.0000000000000000e+00  6.2255769358691287e-07 -1.0006013158105482e-10 0.0000000000000000e+00  6.2263548042626640e-07 2.3505850258272402e-10 0.0000000000000000e+00  6.2248862308649455e-07 -2.0548867155850500e-10 0.0000000000000000e+00  5.6425399937359218e-07 1.6798818009857251e-07 0.0000000000000000e+00  6.2335433534742664e-07 -1.7920082509337602e-10 0.0000000000000000e+00  6.2233628803462828e-07 2.0126691918387052e-10 0.0000000000000000e+00  6.2320113291290246e-07 1.8244296005070748e-10 0.0000000000000000e+00  6.1973562533719304e-07 6.9673171248180250e-10 0.0000000000000000e+00  6.2291771234869052e-07 3.9687389446498025e-11 0.0000000000000000e+00  6.2094668401077489e-07 1.7130141429271269e-10 0.0000000000000000e+00  6.2240139862827213e-07 1.0830381396083834e-10 0.0000000000000000e+00  6.1972853560737041e-07 4.5352257006488981e-11 0.0000000000000000e+00  6.2311240360835643e-07 -5.9806963399984063e-10 0.0000000000000000e+00  6.2125318270215250e-07 3.6423586571414536e-10 0.0000000000000000e+00  6.2067914402651117e-07 -2.2941947743946940e-10 0.0000000000000000e+00  6.2210751533133969e-07 2.5458360062744102e-10 0.0000000000000000e+00  6.2298642125166120e-07 7.7657861406530592e-10 0.0000000000000000e+00  6.1878751354263157e-07 -7.2040883206254131e-10 0.0000000000000000e+00  6.1873433376911590e-07 6.7407562809191083e-10 0.0000000000000000e+00  6.1974929413644299e-07 -9.6315129369948912e-11 0.0000000000000000e+00  6.1846685069609105e-07 -4.5325036203089964e-10 0.0000000000000000e+00  6.2004927407692553e-07 -3.7929705564043997e-10 0.0000000000000000e+00  6.2307390497663037e-07 -1.6959953424465980e-10 0.0000000000000000e+00  6.2343156669714770e-07 -1.1512875804106397e-10 0.0000000000000000e+00  6.2370514123895357e-07 1.4628143926812390e-10 0.0000000000000000e+00  6.2068195131667365e-07 -5.8785943932021146e-10 0.0000000000000000e+00  5.7127000823143988e-07 -3.5209887682166417e-08 0.0000000000000000e+00  6.3817161810885045e-07 -1.8990529269489726e-08 0.0000000000000000e+00  6.1940354206400910e-07 -6.1255395595899029e-09 0.0000000000000000e+00  6.2329869488923896e-07 -1.9009289615173468e-10 0.0000000000000000e+00  6.2363055535150505e-07 -4.1856473239555665e-10 0.0000000000000000e+00  6.2364671992542184e-07 -9.8817398125625818e-11 0.0000000000000000e+00  3.9104052505594010e-22 -1.5736418705281469e-21 0.0000000000000000e+00  5.7483637815583346e-22 1.3093609952100953e-21 0.0000000000000000e+00  6.2331380259190166e-07 3.0010463560888217e-10 0.0000000000000000e+00  6.2317951356867042e-07 -1.0046016422582611e-09 0.0000000000000000e+00  6.2374299277608478e-07 1.2144054153291291e-10 0.0000000000000000e+00  6.1892678921918766e-07 2.7540172204410320e-10 0.0000000000000000e+00  6.2012527413130704e-07 3.3413333984986998e-10 0.0000000000000000e+00  6.2353125737987567e-07 -8.3806705482974480e-09 0.0000000000000000e+00  6.1562522820767788e-07 -3.8691465170604702e-08 0.0000000000000000e+00  6.0740387740150990e-07 6.6490484621885634e-10 0.0000000000000000e+00  6.1926983696626459e-07 5.4037799809571156e-10 0.0000000000000000e+00  6.1942239400603201e-07 -5.3153797874701757e-11 0.0000000000000000e+00  5.9526654990843663e-07 2.4527895056313146e-10 0.0000000000000000e+00  6.2105024451823869e-07 8.1267636653400534e-09 0.0000000000000000e+00  6.2316213085582025e-07 -8.6949699558958389e-11 0.0000000000000000e+00  6.1703380141571698e-07 7.3196254740804124e-10 0.0000000000000000e+00  4.6312303581457472e-09 -7.3440123162802679e-07 0.0000000000000000e+00  6.2326884460079495e-07 3.8508972480477289e-10 0.0000000000000000e+00  6.8367266252771125e-09 6.3483538832795325e-07 0.0000000000000000e+00  -2.6586601592977802e-20 -2.7827219639492349e-20 0.0000000000000000e+00  -5.2476262355062947e-22 3.6591555912449299e-21 0.0000000000000000e+00  2.5173952883716675e-22 4.2396029343779374e-21 0.0000000000000000e+00  2.2123538981978809e-22 -4.4513163559090328e-21 0.0000000000000000e+00  -5.0661354749609790e-22 -4.7803534738093337e-21 0.0000000000000000e+00  -2.8170512543935728e-20 2.2947424132450646e-20 0.0000000000000000e+00  6.2119558496754228e-07 -4.3143328602967162e-10 0.0000000000000000e+00  5.9912481337123138e-07 -5.0234621677160851e-10 0.0000000000000000e+00  5.9923610423154176e-07 -1.4478881908728787e-09 0.0000000000000000e+00  5.9857067008558356e-07 2.1215057044564282e-10 0.0000000000000000e+00  5.9887738029987359e-07 -8.1861914006269391e-11 0.0000000000000000e+00  5.9837218151877639e-07 6.5787589527330525e-10 0.0000000000000000e+00  6.1798300020593976e-07 8.1823387415503084e-10 0.0000000000000000e+00  6.2065066190892830e-07 9.0328340741605541e-09 0.0000000000000000e+00  6.1818072910771151e-07 -1.0830550183163994e-10 0.0000000000000000e+00  6.2248938677484404e-07 -3.6053736054843187e-10 0.0000000000000000e+00  6.2340801447452362e-07 1.7533106113372767e-10 0.0000000000000000e+00  6.2361008528409475e-07 -1.3724024488560499e-10 0.0000000000000000e+00  -1.1391849529878023e-07 9.2241942858311645e-07 0.0000000000000000e+00  -2.3266015487235065e-07 -9.6159121434159476e-07 0.0000000000000000e+00  6.0031708147824742e-07 -2.0433046142548022e-09 0.0000000000000000e+00  6.1691702904558066e-07 7.7118532621406411e-10 0.0000000000000000e+00  6.2367951514426069e-07 -1.2522967489398583e-10 0.0000000000000000e+00  6.2354533726399801e-07 -1.4240677749321137e-10 0.0000000000000000e+00  4.3023339121529913e-21 5.2690429201177146e-23 0.0000000000000000e+00  5.5146462927452798e-07 3.9942024544678166e-08 0.0000000000000000e+00  2.5661485836019296e-06 3.0095485347431768e-06 0.0000000000000000e+00  2.6094509596097924e-06 -3.2125286478438523e-06 0.0000000000000000e+00  6.2391046226863249e-07 -1.0029503760420466e-10 0.0000000000000000e+00  5.9408419482618186e-07 5.9895517781510767e-10 0.0000000000000000e+00  4.2813867758609550e-21 1.1797710897475104e-23 0.0000000000000000e+00  5.9677063045107821e-07 -9.5911815772037808e-10 0.0000000000000000e+00  6.2391622554867052e-07 1.1008344337420884e-10 0.0000000000000000e+00  6.1540065461956872e-07 4.9527387287040274e-08 0.0000000000000000e+00  6.2284493205045440e-07 2.5530985197388805e-11 0.0000000000000000e+00  4.5381865476589201e-21 -4.5372687334349683e-23 0.0000000000000000e+00  6.2358540639193681e-07 2.5039117978287154e-10 0.0000000000000000e+00  6.2334604278699872e-07 -2.7797867842754720e-10 0.0000000000000000e+00  6.1821398219759708e-07 -2.1067819643981101e-10 0.0000000000000000e+00  6.1988680616341826e-07 1.1815584537716477e-10 0.0000000000000000e+00  6.1835387661580392e-07 -4.6948641190819611e-10 0.0000000000000000e+00  4.5171659392550431e-21 3.6125532749012405e-23 0.0000000000000000e+00  6.2025095072092961e-07 -1.8023765461421456e-10 0.0000000000000000e+00  6.2365022735021427e-07 4.9649261442788671e-10 0.0000000000000000e+00  5.9992756731343609e-07 1.4086460438833779e-09 0.0000000000000000e+00  6.2355162933010200e-07 -2.6980524765101156e-11 0.0000000000000000e+00  6.2365119027909760e-07 -3.1066572112368214e-09 0.0000000000000000e+00  6.2308656947017782e-07 8.6044934737286888e-11 0.0000000000000000e+00  6.2316602247879756e-07 -1.4652261761426971e-10 0.0000000000000000e+00  6.0145646010719754e-07 -9.4207138548249141e-09 0.0000000000000000e+00  6.1984101821298274e-07 3.7824254025572255e-10 0.0000000000000000e+00  6.1959818602263489e-07 -5.5437382522165390e-10 0.0000000000000000e+00  6.1897877169978007e-07 -4.0128721784555142e-10 0.0000000000000000e+00  6.2005154403477249e-07 -1.0150414752309723e-09 0.0000000000000000e+00  6.2304539113807158e-07 1.9203196839909214e-10 0.0000000000000000e+00  4.5435198768514329e-21 -5.4355227393650379e-23 0.0000000000000000e+00  5.7705138787147652e-07 -3.3392239432185750e-07 0.0000000000000000e+00  3.4081366149199727e-07 -6.2852058425918098e-07 0.0000000000000000e+00  1.4529995691501460e-07 -4.7249239230381961e-07 0.0000000000000000e+00  4.4590130654892596e-07 -1.6004157354238991e-07 0.0000000000000000e+00  6.2374290559173590e-07 3.2516889089262283e-11 0.0000000000000000e+00  6.2323195774477194e-07 -3.2888196676272547e-10 0.0000000000000000e+00  6.2315487530490488e-07 5.2937089468068945e-11 0.0000000000000000e+00  6.2314089177924851e-07 -1.1922612731055036e-10 0.0000000000000000e+00  6.2231300827926319e-07 -1.3504056901178860e-09 0.0000000000000000e+00  6.1948844260264706e-07 1.3803047229346009e-09 0.0000000000000000e+00  5.0263861844377794e-21 8.6391012545024324e-24 0.0000000000000000e+00  6.1904365675359186e-07 8.6433241687059415e-10 0.0000000000000000e+00  6.2316214408081703e-07 -1.8459463867000377e-10 0.0000000000000000e+00  6.2314414642862552e-07 2.6741408650662372e-12 0.0000000000000000e+00  6.1889984120026969e-07 5.5557652652443616e-10 0.000000