<?xml version="1.0"?>
<VTKFile type="UnstructuredGrid"  version="0.1"  >
<UnstructuredGrid>
<Piece  NumberOfPoints="1079" NumberOfCells="1944">
<Points>
<DataArray  type="Float64"  NumberOfComponents="3"  format="ascii">0.08500000000000001 0.02 0  0.005 0.02 0  0.005 0.03 0  0 0.03 0  0 0 0  0.005 0 0  0.005 0.01 0  0.08500000000000001 0.01 0  0 0.015 0  0 0.0075 0  0 0.0225 0  0.04500000000000001 0.02 0  0.04500000000000001 0.01 0  0.025 0.01 0  0.025 0.02 0  0.065 0.02 0  0.065 0.01 0  0.035 0.02 0  0.035 0.01 0  0.07500000000000001 0.02 0  0.07500000000000001 0.01 0  0.015 0.02 0  0.015 0.01 0  0.05500000000000001 0.01 0  0.05500000000000001 0.02 0  0.07000000000000001 0.01 0  0.07000000000000001 0.02 0  0.05 0.01 0  0.03 0.01 0  0.03 0.02 0  0.04000000000000001 0.01 0  0.01 0.01 0  0.02 0.02 0  0.06 0.015 0  0.08500000000000001 0.015 0  0.05 0.02 0  0.07250000000000001 0.015 0  0.04000000000000001 0.02 0  0.03750000000000001 0.015 0  0.0525 0.015 0  0.02 0.01 0  0.01 0.02 0  0.0275 0.015 0  0.0125 0.015 0  0.08000000000000002 0.01 0  0.08000000000000002 0.02 0  0.0325 0.014375 0  0.04291666666666667 0.015 0  0.065 0.015 0  0.005 0.005 0  0.005 0.015 0  0.02208333333333334 0.015 0  0.07791666666666668 0.015 0  0.005 0.025 0  0.06 0.01 0  0.06 0.02 0  0.01729166666666667 0.01572916666666667 0  0.04770833333333334 0.01427083333333334 0  0.06875000000000001 0.01625 0  0.008750000000000001 0.01625 0  0.05625000000000001 0.01625 0  0 0.00375 0  0 0.01875 0  0 0.01125 0  0 0.02625 0  0.08145833333333334 0.01354166666666667 0  0.0675 0.01 0  0.0075 0.0125 0  0.0625 0.0175 0  0.0575 0.0125 0  0.0625 0.0125 0  0.08207465277777778 0.01707465277777778 0  0.06767857142857144 0.01321428571428571 0  0.0175 0.01 0  0.01875 0.01291382575757576 0  0.0475 0.02 0  0.04564168086314595 0.01679860519591141 0  0.00296875 0.0125 0  0.0025 0.03 0  0.0025 0 0  0.00296875 0.0175 0  0.01521990740740741 0.0132349537037037 0  0.0497800925925926 0.0167650462962963 0  0.0325 0.02 0  0.03474264705882353 0.01674632352941176 0  0.03750000000000001 0.02 0  0.03025735294117647 0.01674632352941176 0  0.0275 0.02 0  0.0525 0.02 0  0.0125 0.01 0  0.04020833333333334 0.01322916666666667 0  0.03750000000000001 0.01 0  0.0225 0.02 0  0.02479166666666667 0.01677083333333333 0  0.07520833333333335 0.01322916666666667 0  0.07250000000000001 0.01 0  0.07520833333333335 0.01677083333333334 0  0.07250000000000001 0.02 0  0.04020833333333334 0.01677083333333333 0  0.0225 0.01 0  0.02375 0.01262152777777778 0  0.04250000000000001 0.02 0  0.04250000000000001 0.01 0  0.07750000000000001 0.01 0  0.07750000000000001 0.02 0  0.05036151960784314 0.01294424019607843 0  0.0705560064935065 0.01284699675324675 0  0.05458333333333334 0.01291666666666666 0  0.0021875 0.024375 0  0.005 0.0275 0  0.01125 0.0175 0  0.01463848039215686 0.01705575980392157 0  0.01 0.01375 0  0.03625 0.0125 0  0.0021875 0.009375 0  0.05375000000000001 0.0175 0  0.07125000000000001 0.0175 0  0.005 0.0025 0  0.0021875 0.005625 0  0.02655220103578155 0.01234889948210923 0  0.002187499999999999 0.020625 0  0.02979166666666667 0.01302083333333333 0  0.0525 0.01 0  0.07895833333333334 0.0125 0  0.01994277885235332 0.01704213007736944 0  0.07934656179076068 0.01733823814273861 0  0.04505722114764669 0.01295786992263056 0  0.06625 0.0175 0  0.006250000000000001 0.0175 0  0.05750000000000001 0.02 0  0.05875000000000001 0.0175 0  0.005 0.0225 0  0.005 0.0075 0  0.002375 0.027375 0  0.002375 0.002625000000000001 0  0.0475 0.01 0  0.0175 0.02 0  0.0325 0.01 0  0.03375 0.0121875 0  0.04261299435028249 0.01749205508474576 0  0.08500000000000001 0.0125 0  0.08250000000000002 0.01 0  0.02121963399965531 0.01224824108143494 0  0.0675 0.02 0  0.0125 0.02 0  0.02720152243589744 0.0175 0  0.03715165441176471 0.0175 0  0.08500000000000001 0.0175 0  0.0275 0.01 0  0.0025 0.0149560546875 0  0.0075 0.01 0  0.0075 0.02 0  0.06526785714285716 0.0125 0  0.01281031447005516 0.0125 0  0.0625 0.015 0  0.06 0.0125 0  0.05750000000000001 0.01 0  0.0625 0.02 0  0.0625 0.01 0  0.08250000000000002 0.02 0  0.04260103740101855 0.01252623201412851 0  0.02240052247582197 0.01750164767101344 0  0.07293583459427785 0.01238479732953041 0  0.005234374999999999 0.012265625 0  0.03528131980640358 0.01454684009679821 0  0.0325 0.01760027210036557 0  0.02532593822924343 0.01428227733767297 0  0.08009952069819683 0.01527145502895417 0  0.01987282359856536 0.01482587683689801 0  0.04828232595121382 0.01210233572595705 0  0.01671767404878618 0.01789766427404295 0  0.05125 0.01829007549029352 0  0.05247215456215357 0.01288882122882024 0  0.07338729919678716 0.01799385040160642 0  0.03838729919678716 0.01200614959839357 0  0.07717482110586968 0.01780301674207099 0  0.04771860040890012 0.01773306039388322 0  0.03125 0.01160380747126437 0  0.06875000000000001 0.01154265873015873 0  0.07625000000000001 0.01154065860215054 0  0.01625 0.01153997817696946 0  0.068125 0.018125 0  0.05437500000000001 0.015625 0  0.066875 0.015625 0  0.07039794950204951 0.01494384850614853 0  0.05687500000000001 0.018125 0  0.006875 0.015625 0  0.008749999999999999 0.01833333333333333 0  0.010625 0.015625 0  0.05625 0.01416666666666667 0  0.05812500000000001 0.015625 0  0.0449088595298192 0.01494528408816316 0  0 0.016875 0  0 0.013125 0  0.04962452342047931 0.01478673066448802 0  0.0153754765795207 0.01521326933551198 0  0.0771774565913315 0.01322498191305479 0  0.01857756431135545 0.01840228599899994 0  0.04642243568864456 0.01159771400100006 0  0.08125000000000002 0.01155637254901961 0  0.08317650804863432 0.0118234919513657 0  0.08288217288011697 0.01511353252923977 0  0.02837253504384828 0.0117177464035174 0  0.03896057962520807 0.01831163685754031 0  0.01125 0.0114244162490927 0  0.00935910490099115 0.0119067901980177 0  0.02946078431372549 0.01495404411764706 0  0.02875 0.0185829434466942 0  0.002968749999999999 0.0225 0  0.064375 0.016875 0  0.00296875 0.0075 0  0 0.001875 0  0 0.005625 0  0 0.009375 0  0 0.020625 0  0 0.024375 0  0 0.028125 0  0.06062500000000001 0.01812500000000001 0  0.008303571428571429 0.01446428571428572 0  0.01375 0.01865917058160413 0  0.05137790313978056 0.01143372888932909 0  0.04125000000000001 0.01131513063942604 0  0.04101690263896279 0.01844430285842771 0  0.02399563533148224 0.01844349395710867 0  0.08125000000000002 0.01868815426145731 0  0.05354684380692146 0.01145463537600848 0  0.01699195823639423 0.01315138909884649 0  0.07598357371794873 0.015 0  0.04098357371794872 0.015 0  0.003744047619047619 0.00375 0  0.003344630281690141 0.02580853873239437 0  0.04625 0.0187354532243972 0  0.06388392857142858 0.01138392857142858 0  0.06375 0.01375 0  0.05875 0.01375 0  0.06375 0.02 0  0.00622802734375 0.01372802734375 0  0.003630681818181818 0.001369318181818182 0  0.003630681818181818 0.02863068181818182 0  0.06125 0.01625 0  0.06125 0.01125 0  0.05625000000000001 0.01 0  0.05875 0.01125 0  0.06125 0.01375 0  0.08337864763241221 0.0183786476324122 0  0.05213634138653413 0.01674432930673294 0  0.04375000000000001 0.01 0  0.07424178685897437 0.01529258578431373 0  0.03924178685897436 0.01529258578431372 0  0.03410139294454583 0.01843406022904556 0  0.03089860705545417 0.01843406022904556 0  0.02094160484316717 0.01850229584291991 0  0.04375000000000001 0.02 0  0.04437042160883325 0.01820701498672512 0  0.04816311705429156 0.01600061344661149 0  0.07151224904251052 0.0114127410511319 0  0.04395528506193162 0.01639387970349481 0  0.0128750358694518 0.0167500179347259 0  0.02855808448399799 0.01642839899839741 0  0.02812690373330794 0.01340955081400569 0  0.08358500641945087 0.01351822349116885 0  0.05590277777777778 0.01173611111111111 0  0.06683110430364615 0.01164926404662283 0  0.02573206694914602 0.01842532451809762 0  0.01438126661842046 0.01166701193099454 0  0.02384283211216029 0.01526549696571563 0  0.03625 0.02 0  0.004609375000000001 0.0182421875 0  0.003398437500000001 0.01943359375 0  0.001728307845744682 0.01894718251329787 0  0.004377805359085963 0.01656966216675735 0  0.04649673309852075 0.0153889662370871 0  0.03615513600614297 0.01592654988586041 0  0.03316985071935832 0.01598763605018279 0  0.03110111603888768 0.01529816275177977 0  0.01370614113484869 0.0138804542047638 0  0.04930041102671841 0.01842260568883502 0  0.07875000000000001 0.02 0  0.0745395359848485 0.01165101111925709 0  0.03860755698543604 0.01373741558556884 0  0.02605038706571737 0.01573944002207753 0  0.07559826163500957 0.01841729376139847 0  0.04437500000000001 0.01149157931286774 0  0.06874116707361365 0.01454618473032123 0  0.003761917372881356 0.0239307468220339 0  0.003984374999999999 0.01125 0  0.003768503289473684 0.01392539576480263 0  0.001796875 0.0111328125 0  0.003761917372881356 0.008930746822033899 0  0.005 0.00625 0  0.003761917372881355 0.0210692531779661 0  0.06633928571428571 0.01410714285714285 0  0.006484375 0.01125 0  0.08364120589325512 0.01657288979763549 0  0.03576267476503373 0.0184116442851204 0  0.07370875846579374 0.0137848203678562 0  0.06964285714285715 0.01758928571428571 0  0.05520833333333334 0.01833333333333333 0  0.06491071428571429 0.01839285714285714 0  0.0510098951944636 0.01559941474766356 0  0.01786087179886325 0.0115702210443714 0  0.01972197383235524 0.01160576093166696 0  0.01804697593127788 0.01433503795474974 0  0.001644074528704677 0.01642892723865279 0  0.00125 0.03 0  0.001497685185185185 0.001267746913580247 0  0.07315451164202422 0.01643443118912983 0  0.001233906745910645 0.0140625 0  0.01162635071030191 0.01362229857939618 0  0.01528023503083844 0.01845923557506155 0  0.06625 0.02 0  0.07695012019230771 0.01624387078484555 0  0.03139091092855769 0.01320776147621796 0  0.03857339107781042 0.01675295051810485 0  0.001754993120977522 0.02590789105493891 0  0.002288757784711197 0.00412546923654445 0  0.07914382119690884 0.01404430049871201 0  0.001391810103286306 0.01257390899021902 0  0.0419501201923077 0.01614675005432421 0  0.001484375 0.007018229166666667 0  0.001484375 0.02201822916666666 0  0.048
[...]
<PointData  Vectors="velocity"> 
<DataArray  type="Float64"  Name="velocity"  NumberOfComponents="3" format="ascii">4.0654791938346465e-06 2.8915157324831415e-20 0.0000000000000000e+00  8.2697188079447153e-20 -9.9791520247384826e-20 0.0000000000000000e+00  3.6912934835178960e-18 -1.9630406500402851e-04 0.0000000000000000e+00  -4.1359030627651515e-18 -1.9630406500402821e-04 0.0000000000000000e+00  -4.0118259708822012e-18 1.9630406500402835e-04 0.0000000000000000e+00  3.6292549375764251e-18 1.9630406500402802e-04 0.0000000000000000e+00  8.0196939175212521e-20 7.8737369996131805e-20 0.0000000000000000e+00  4.1752628388404699e-06 -3.0976185174434943e-20 0.0000000000000000e+00  9.2939291789148147e-21 -6.9136225889345937e-22 0.0000000000000000e+00  -1.0228008457693848e-21 7.7577294836955291e-20 0.0000000000000000e+00  4.3731516732628354e-22 -8.9419231521980734e-20 0.0000000000000000e+00  7.5855322982556883e-20 -2.8333730281961386e-22 0.0000000000000000e+00  7.0753491977422794e-20 4.0800800710559951e-22 0.0000000000000000e+00  7.7328761919093444e-20 2.4776157040439878e-22 0.0000000000000000e+00  6.7669680409474350e-20 -2.5656530270407058e-22 0.0000000000000000e+00  7.4432991806180257e-20 2.2627879196021649e-22 0.0000000000000000e+00  7.4487427021942002e-20 1.0234440962217258e-22 0.0000000000000000e+00  5.9410921654104741e-20 -1.3139308862272023e-22 0.0000000000000000e+00  9.0705957171222713e-20 -6.8195173981226947e-23 0.0000000000000000e+00  7.4056645068575815e-20 4.6272941465583052e-22 0.0000000000000000e+00  6.9606238874427112e-20 2.8569136766281511e-22 0.0000000000000000e+00  6.4029204762304932e-20 -1.6402408941883481e-22 0.0000000000000000e+00  6.4872374297195186e-20 -1.4182105726805761e-22 0.0000000000000000e+00  7.5431636038020701e-20 -8.4199472776341624e-22 0.0000000000000000e+00  6.7219321378454302e-20 3.0340302339432674e-22 0.0000000000000000e+00  6.7321051830961100e-20 1.2695241455192019e-22 0.0000000000000000e+00  8.3914247978540866e-20 -2.8619546281743713e-22 0.0000000000000000e+00  7.6770323320907049e-20 2.4432641726568685e-22 0.0000000000000000e+00  8.0998630013255170e-20 4.8155335032666106e-23 0.0000000000000000e+00  6.1353774147229405e-20 -1.9456679486408735e-22 0.0000000000000000e+00  7.0175576728992546e-20 2.4666380651451299e-22 0.0000000000000000e+00  7.3574522490427347e-20 4.1408358412324190e-22 0.0000000000000000e+00  6.4092517678639386e-20 -1.4008928281754712e-22 0.0000000000000000e+00  1.0368274293019082e-05 -1.5149923403679868e-09 0.0000000000000000e+00  9.9578028415641115e-06 2.3939447294890527e-23 0.0000000000000000e+00  6.6579324629801393e-20 5.1882089804680734e-23 0.0000000000000000e+00  1.0368082729039666e-05 3.4953993074012307e-09 0.0000000000000000e+00  7.6188354652827070e-20 -6.9060370586453667e-22 0.0000000000000000e+00  1.0359452589992988e-05 -5.0426555630834068e-09 0.0000000000000000e+00  1.0357473837913956e-05 -5.6459781066164322e-10 0.0000000000000000e+00  6.9264152742733887e-20 2.8120127168613396e-23 0.0000000000000000e+00  7.6337245087446516e-20 -1.4599807933222067e-21 0.0000000000000000e+00  1.0358809936097668e-05 -2.6570307032325391e-10 0.0000000000000000e+00  1.0337205160230214e-05 -3.9559428289557116e-08 0.0000000000000000e+00  6.5284831842409882e-20 -2.3424810633500435e-22 0.0000000000000000e+00  7.2110577113820152e-20 1.3064669093310248e-21 0.0000000000000000e+00  1.0356412677089638e-05 3.0456495852033425e-10 0.0000000000000000e+00  1.0366911638648586e-05 -1.0106206892766706e-09 0.0000000000000000e+00  1.0364114535962497e-05 -8.7223562124746478e-10 0.0000000000000000e+00  -5.3243623470499291e-21 9.2355294543221196e-20 0.0000000000000000e+00  7.8319518449508114e-06 -4.0310853035539986e-07 0.0000000000000000e+00  1.0354787019724017e-05 2.5571674649837115e-09 0.0000000000000000e+00  1.0352081353820094e-05 5.3295828956889882e-10 0.0000000000000000e+00  -7.8835240383844465e-21 -1.0877707546444697e-19 0.0000000000000000e+00  6.4300367928927350e-20 1.7291831042444736e-22 0.0000000000000000e+00  7.7360553566373680e-20 9.3446202820836328e-22 0.0000000000000000e+00  1.0359636040534768e-05 -3.5587786711339394e-09 0.0000000000000000e+00  1.0362971903987727e-05 2.7405851835450454e-09 0.0000000000000000e+00  1.0364193490496401e-05 -2.6436424467563921e-09 0.0000000000000000e+00  1.0204066724070617e-05 -3.2766977372182511e-07 0.0000000000000000e+00  1.0356825046177825e-05 -7.7924645502031899e-09 0.0000000000000000e+00  -4.5680751729217052e-20 1.3723488623127285e-20 0.0000000000000000e+00  4.1708078495835793e-21 -4.2123013067492478e-20 0.0000000000000000e+00  5.9395758867125362e-21 4.4924792161316640e-20 0.0000000000000000e+00  -5.5487432192415040e-20 1.0439645747542004e-20 0.0000000000000000e+00  1.0256906365531947e-05 -9.9107554894020273e-08 0.0000000000000000e+00  6.5673009704388361e-20 -1.7823851510753187e-22 0.0000000000000000e+00  1.0217199510749635e-05 5.9069565692229620e-07 0.0000000000000000e+00  1.0344889441824596e-05 2.9748618504719860e-10 0.0000000000000000e+00  1.0349518972341259e-05 8.7211488487537908e-10 0.0000000000000000e+00  1.0358789225275188e-05 -4.4495271094239959e-09 0.0000000000000000e+00  1.0245722143053908e-05 1.8949765134976688e-07 0.0000000000000000e+00  1.0357646635909760e-05 -2.0986641293777206e-09 0.0000000000000000e+00  6.9810922602582503e-20 -1.4452491415732256e-23 0.0000000000000000e+00  1.0349367367691208e-05 -1.2011136879394845e-10 0.0000000000000000e+00  8.7212871916673732e-20 1.2129067162563470e-21 0.0000000000000000e+00  1.0366896331846222e-05 -7.8965974577406844e-09 0.0000000000000000e+00  4.9572198015488662e-06 4.0507419851369807e-06 0.0000000000000000e+00  -2.2088127155369390e-19 -1.9630406500402916e-04 0.0000000000000000e+00  -3.4952571158546695e-19 1.9630406500402927e-04 0.0000000000000000e+00  5.1296486829783368e-06 -5.0380532990061979e-06 0.0000000000000000e+00  1.0345437387945939e-05 -1.4329709363047873e-08 0.0000000000000000e+00  1.0354307732581340e-05 9.3053643503687728e-09 0.0000000000000000e+00  7.0611779339205757e-20 6.2505271442941845e-22 0.0000000000000000e+00  1.0353420117076685e-05 -3.1950717153322037e-09 0.0000000000000000e+00  7.4815740115588620e-20 4.7226835211149495e-22 0.0000000000000000e+00  1.0355418482429985e-05 -3.2897712326409790e-09 0.0000000000000000e+00  8.3426554693544556e-20 1.5843112630936056e-22 0.0000000000000000e+00  6.8626880996065563e-20 -4.8718112085843244e-24 0.0000000000000000e+00  7.7481298438350164e-20 4.2397111272334828e-22 0.0000000000000000e+00  1.0358761461674578e-05 3.2053514796359416e-09 0.0000000000000000e+00  7.0601004889901380e-20 2.4020273522539417e-22 0.0000000000000000e+00  7.3885540754394757e-20 1.9672588445849611e-22 0.0000000000000000e+00  1.0352228307219582e-05 8.0085075161836730e-10 0.0000000000000000e+00  1.0362316108813846e-05 1.6517278946229548e-09 0.0000000000000000e+00  7.2417131586651980e-20 6.5695197228739446e-23 0.0000000000000000e+00  1.0360334672732824e-05 7.1083637507849928e-09 0.0000000000000000e+00  8.2884416375258520e-20 8.4877437030203519e-22 0.0000000000000000e+00  1.0365124512199880e-05 -1.3159243802130442e-08 0.0000000000000000e+00  6.7023818508436375e-20 2.1719812261877680e-23 0.0000000000000000e+00  1.0343298696872931e-05 6.9829650594803691e-09 0.0000000000000000e+00  7.4745989218639337e-20 5.8688747816142697e-24 0.0000000000000000e+00  6.8076505772426105e-20 6.6334730996990262e-22 0.0000000000000000e+00  7.4373098032609389e-20 1.2981255454973755e-21 0.0000000000000000e+00  8.1336524887842500e-20 -4.7145667147690965e-22 0.0000000000000000e+00  1.0360978282604934e-05 7.8469352121303736e-09 0.0000000000000000e+00  1.0363403476895800e-05 1.2251567112193710e-08 0.0000000000000000e+00  1.0360379456882591e-05 1.2805798865857602e-09 0.0000000000000000e+00  -2.1502906768947023e-06 -1.1379221512691379e-05 0.0000000000000000e+00  1.4787324501414768e-20 -1.5795848847392571e-19 0.0000000000000000e+00  1.0396681650726463e-05 -8.7253155052880982e-08 0.0000000000000000e+00  1.0374982916568451e-05 -2.8705782504715768e-08 0.0000000000000000e+00  1.0238034857971689e-05 2.6685607572094177e-08 0.0000000000000000e+00  1.0335694442914003e-05 -1.1102025563148074e-08 0.0000000000000000e+00  1.7404079268022853e-06 9.2669157021475859e-06 0.0000000000000000e+00  1.0344697412134024e-05 -1.7511226611874271e-11 0.0000000000000000e+00  1.0366689538599222e-05 2.1697346509590648e-12 0.0000000000000000e+00  3.4840786607557625e-20 8.5142716508332994e-20 0.0000000000000000e+00  -1.8994729413068432e-06 9.8546763553088644e-06 0.0000000000000000e+00  1.0343264170803260e-05 -7.0932141909355016e-09 0.0000000000000000e+00  1.7316279529498998e-06 -1.0655821361211010e-05 0.0000000000000000e+00  1.0361094210067056e-05 -1.7176445604383843e-09 0.0000000000000000e+00  6.7762701179943208e-20 -5.8450761500907051e-22 0.0000000000000000e+00  1.0340996992066093e-05 -3.1600728930469728e-08 0.0000000000000000e+00  1.0350852481778069e-05 1.1255810977362553e-10 0.0000000000000000e+00  1.0346339212501736e-05 4.7771099768219926e-08 0.0000000000000000e+00  1.0363644312085804e-05 -2.3044326441386719e-09 0.0000000000000000e+00  1.0359170092177622e-05 -1.2238848313338517e-08 0.0000000000000000e+00  1.0338613539646398e-05 -1.9032470681345303e-06 0.0000000000000000e+00  7.8846149060746887e-20 -1.0525736521648380e-21 0.0000000000000000e+00  1.0340322787933211e-05 -3.6773202098923273e-09 0.0000000000000000e+00  8.7545463481923224e-22 -9.4058580819172211e-20 0.0000000000000000e+00  8.4246043351683184e-22 8.4575823638671809e-20 0.0000000000000000e+00  -2.3524550467073667e-05 -2.5971335211925372e-05 0.0000000000000000e+00  -1.9159111541649314e-05 2.1364005352219455e-05 0.0000000000000000e+00  6.9121287637776582e-20 2.0769617679620366e-23 0.0000000000000000e+00  7.8052309462954758e-20 1.1619466001083043e-21 0.0000000000000000e+00  6.7219460986274802e-20 1.0230613979675434e-22 0.0000000000000000e+00  1.0340818272853334e-05 1.2603446935627533e-08 0.0000000000000000e+00  1.0345140419036685e-05 7.6116148541464772e-09 0.0000000000000000e+00  9.4108499590069781e-06 -2.5085324400463222e-21 0.0000000000000000e+00  7.0140866193721604e-20 -2.4868125286864932e-21 0.0000000000000000e+00  1.0344983667677466e-05 2.9327566834422722e-09 0.0000000000000000e+00  7.5142555531963023e-20 4.8213477935079735e-22 0.0000000000000000e+00  6.9301059797526821e-20 -1.5962021990217209e-22 0.0000000000000000e+00  1.0355130368943312e-05 -1.3148929423846019e-09 0.0000000000000000e+00  1.0366384042773526e-05 1.1063182032935472e-09 0.0000000000000000e+00  9.4001060544256071e-06 3.1644688344458147e-21 0.0000000000000000e+00  7.3931562179116716e-20 -9.1083740303087904e-22 0.0000000000000000e+00  3.8524688494025540e-06 -3.7015745940935056e-07 0.0000000000000000e+00  7.6271890997930448e-20 2.4930826439697092e-21 0.0000000000000000e+00  9.2918547059036016e-20 -3.3244556959146884e-21 0.0000000000000000e+00  1.0355581925074353e-05 -4.6416256793366769e-09 0.0000000000000000e+00  1.0319917822765063e-05 -1.2091840745596585e-08 0.0000000000000000e+00  1.0369213420927569e-05 7.0898972518972169e-11 0.0000000000000000e+00  1.0349650568971655e-05 6.5239836560794102e-09 0.0000000000000000e+00  7.5326687923652399e-20 7.3687308182211110e-23 0.0000000000000000e+00  7.8491335996902997e-20 2.6219178021745853e-22 0.0000000000000000e+00  7.1720357239586993e-20 -1.3704971416025650e-21 0.0000000000000000e+00  6.7075956909283260e-20 1.5342345099824443e-21 0.0000000000000000e+00  1.0347713562326539e-05 -1.6704989047250013e-09 0.0000000000000000e+00  1.0348992889555821e-05 3.9414484463951686e-09 0.0000000000000000e+00  1.0346573510527679e-05 -3.4249019364123605e-09 0.0000000000000000e+00  9.3861391359122214e-06 2.8027573994164262e-06 0.0000000000000000e+00  1.0360974849230513e-05 -2.9787910485414003e-09 0.0000000000000000e+00  1.0344062428027115e-05 3.3544819058429900e-09 0.0000000000000000e+00  1.0358432346236005e-05 3.0472896173788368e-09 0.0000000000000000e+00  1.0300800963590222e-05 1.1583122404512225e-08 0.0000000000000000e+00  1.0353719943887567e-05 7.6035624416873639e-10 0.0000000000000000e+00  1.0320963382823832e-05 2.8425011113151661e-09 0.0000000000000000e+00  1.0344901892091117e-05 1.9818144028384504e-09 0.0000000000000000e+00  1.0300716796559487e-05 7.5838956879218784e-10 0.0000000000000000e+00  1.0356954705423706e-05 -9.9398524604341540e-09 0.0000000000000000e+00  1.0326059155873721e-05 6.0702837168679698e-09 0.0000000000000000e+00  1.0316516094587946e-05 -3.8170909406071826e-09 0.0000000000000000e+00  1.0340259621259638e-05 4.2458774343674422e-09 0.0000000000000000e+00  1.0354864058347224e-05 1.2923480635398804e-08 0.0000000000000000e+00  1.0285075331705110e-05 -1.1973909001487715e-08 0.0000000000000000e+00  1.0284173963295348e-05 1.1198159120583809e-08 0.0000000000000000e+00  1.0301047977961319e-05 -1.5916483847637003e-09 0.0000000000000000e+00  1.0280043867197304e-05 -7.4025653507838419e-09 0.0000000000000000e+00  1.0306048409178182e-05 -6.2952464574448417e-09 0.0000000000000000e+00  1.0356313877134235e-05 -2.8201129791839997e-09 0.0000000000000000e+00  1.0362258560564103e-05 -1.9142512331910440e-09 0.0000000000000000e+00  1.0366805611642592e-05 2.4322406670402470e-09 0.0000000000000000e+00  1.0316539840005176e-05 -9.7743731242527124e-09 0.0000000000000000e+00  9.4941788843233385e-06 -5.7820087875677421e-07 0.0000000000000000e+00  1.0603518214489170e-05 -3.1360752454779011e-07 0.0000000000000000e+00  1.0294903675150620e-05 -9.9646295728196636e-08 0.0000000000000000e+00  1.0360050523979171e-05 -3.1601706483945008e-09 0.0000000000000000e+00  1.0365566994789806e-05 -6.9570319684264376e-09 0.0000000000000000e+00  1.0365834458296449e-05 -1.6417302249371944e-09 0.0000000000000000e+00  6.9771109440284102e-21 -2.6543356852281994e-20 0.0000000000000000e+00  1.0099317072948193e-20 2.1481094807726303e-20 0.0000000000000000e+00  1.0360299434229228e-05 4.9876762535344244e-09 0.0000000000000000e+00  1.0358037428280781e-05 -1.6253447031907857e-08 0.0000000000000000e+00  1.0367429838638828e-05 2.0134993733928914e-09 0.0000000000000000e+00  1.0287235354723727e-05 4.6393130586328125e-09 0.0000000000000000e+00  1.0307309853563773e-05 5.5409626119949563e-09 0.0000000000000000e+00  1.0363911564600808e-05 -1.3934661779795644e-07 0.0000000000000000e+00  1.0232403470108112e-05 -6.4316934920336671e-07 0.0000000000000000e+00  1.0095755244698605e-05 1.1057198934359117e-08 0.0000000000000000e+00  1.0293106637319182e-05 8.9806013748259490e-09 0.0000000000000000e+00  1.0295625172484382e-05 -8.9285719807090924e-10 0.0000000000000000e+00  9.8957070149619696e-06 4.6426417720971876e-09 0.0000000000000000e+00  1.0325596928645885e-05 1.3674883279829766e-07 0.0000000000000000e+00  1.0357779563014706e-05 -1.4407658277132334e-09 0.0000000000000000e+00  1.0255923151727644e-05 1.2173373731019851e-08 0.0000000000000000e+00  8.6346081482873750e-08 -1.2178454406598569e-05 0.0000000000000000e+00  1.0359549619479664e-05 6.4031043247800420e-09 0.0000000000000000e+00  1.2148272770881537e-07 1.0574266290703012e-05 0.0000000000000000e+00  -4.4240964203822841e-19 -4.5629429779095408e-19 0.0000000000000000e+00  -8.2827397879342603e-21 6.1269581992938369e-20 0.0000000000000000e+00  4.1494432280583273e-21 6.9891245208999960e-20 0.0000000000000000e+00  3.8805923194154894e-21 -7.1300532592290839e-20 0.0000000000000000e+00  -8.3656185791663342e-21 -7.4822923937885226e-20 0.0000000000000000e+00  -4.7983549702356583e-19 3.9235222427823342e-19 0.0000000000000000e+00  1.0325094681406958e-05 -7.1695368995030343e-09 0.0000000000000000e+00  9.9591109353612854e-06 -3.8499873861567576e-09 0.0000000000000000e+00  9.9593694829971398e-06 -2.3748397387469265e-08 0.0000000000000000e+00  9.9490485135637776e-06 3.4518135581453589e-09 0.0000000000000000e+00  9.9541409593060747e-06 -1.3887275090748736e-09 0.0000000000000000e+00  9.9457057724529793e-06 1.1007195070615679e-08 0.0000000000000000e+00  1.0271658138798897e-05 1.3610586129259500e-08 0.0000000000000000e+00  1.0316059404531981e-05 1.5015967808808892e-07 0.0000000000000000e+00  1.0274975516253602e-05 -1.7754906448431828e-09 0.0000000000000000e+00  1.0346747330038935e-05 -5.7750737953469477e-09 0.0000000000000000e+00  1.0361864310293347e-05 2.9134263972545880e-09 0.0000000000000000e+00  1.0365226273319371e-05 -2.2809643865612529e-09 0.0000000000000000e+00  -1.8484200570446835e-06 1.5274716378363768e-05 0.0000000000000000e+00  -3.7801673670800037e-06 -1.5889330451694952e-05 0.0000000000000000e+00  9.9779661031183860e-06 -3.3965193586936967e-08 0.0000000000000000e+00  1.0253964380907093e-05 1.2833680669393189e-08 0.0000000000000000e+00  1.0366378382571803e-05 -2.0815600184217362e-09 0.0000000000000000e+00  1.0364151083273131e-05 -2.3658333899946385e-09 0.0000000000000000e+00  7.1279264494145330e-20 8.1968174821821823e-22 0.0000000000000000e+00  9.1689926311696207e-06 6.7199656573391065e-07 0.0000000000000000e+00  4.2486614791509415e-05 4.9585419370306413e-05 0.0000000000000000e+00  4.3058784131252503e-05 -5.2831416153005952e-05 0.0000000000000000e+00  1.0370216500783347e-05 -1.6652517686548747e-09 0.0000000000000000e+00  9.8743605738698604e-06 9.9359882122240552e-09 0.0000000000000000e+00  6.8815248797324630e-20 2.1623110735872377e-22 0.0000000000000000e+00  9.9191271710961188e-06 -1.5987223751449671e-08 0.0000000000000000e+00  1.0370314714841480e-05 1.8292041139543418e-09 0.0000000000000000e+00  1.0228801381794286e-05 8.2318015445584340e-07 0.0000000000000000e+00  1.0352506957190433e-05 4.2320240623289353e-10 0.0000000000000000e+00  7.7817981342923521e-20 -7.2695179626798505e-22 0.0000000000000000e+00  1.0364813965101022e-05 4.1616217731195555e-09 0.0000000000000000e+00  1.0360837151540044e-05 -4.6200337454872551e-09 0.0000000000000000e+00  1.0275532490498797e-05 -3.5112151910008042e-09 0.0000000000000000e+00  1.0303337891358535e-05 1.9660140374069986e-09 0.0000000000000000e+00  1.0277793880964942e-05 -7.7666564276674865e-09 0.0000000000000000e+00  7.1727907596817880e-20 6.0974918597524869e-22 0.0000000000000000e+00  1.0309380673690093e-05 -3.0040042205233147e-09 0.0000000000000000e+00  1.0365891209005057e-05 8.2534398829169063e-09 0.0000000000000000e+00  9.9716004577088300e-06 2.3362593351226451e-08 0.0000000000000000e+00  1.0364254293874426e-05 -4.4766025307804660e-10 0.0000000000000000e+00  1.0365340030873582e-05 -5.0757063253273015e-08 0.0000000000000000e+00  1.0356521501840435e-05 1.4355118207060441e-09 0.0000000000000000e+00  1.0357846447157700e-05 -2.4315374687596428e-09 0.0000000000000000e+00  9.9969024513341567e-06 -1.5668160053188190e-07 0.0000000000000000e+00  1.0302588492154832e-05 6.2755692528730508e-09 0.0000000000000000e+00  1.0298533559344048e-05 -9.2281305526256229e-09 0.0000000000000000e+00  1.0288244002632547e-05 -6.6510480049361183e-09 0.0000000000000000e+00  1.0306596630426590e-05 -1.6584156797453278e-08 0.0000000000000000e+00  1.0355837437303906e-05 3.2178896366027796e-09 0.0000000000000000e+00  7.8972259154482461e-20 -9.0543525603442226e-22 0.0000000000000000e+00  9.5830059278654267e-06 -5.5364809981503892e-06 0.0000000000000000e+00  5.6588146764111297e-06 -1.0424070337489209e-05 0.0000000000000000e+00  2.4134952993916531e-06 -7.8338834717882323e-06 0.0000000000000000e+00  7.4083168978633761e-06 -2.6474474844740942e-06 0.0000000000000000e+00  1.0367432954052464e-05 5.4175943847770073e-10 0.0000000000000000e+00  1.0358940937741337e-05 -5.4666973903412417e-09 0.0000000000000000e+00  1.0357658876219462e-05 8.8085032900645520e-10 0.0000000000000000e+00  1.0357426759347432e-05 -1.9786638861033672e-09 0.0000000000000000e+00  1.0343957406658330e-05 -2.1720259498634593e-08 0.0000000000000000e+00  1.0296694196234406e-05 2.2934841821072197e-08 0.0000000000000000e+00  7.9457112803592412e-20 1.7466691990921282e-22 0.0000000000000000e+00  1.0289341922236610e-05 1.4355618370914712e-08 0.0000000000000000e+00  1.0357780568146151e-05 -3.0675093699636137e-09 0.0000000000000000e+00  1.0357477539762705e-05 5.6286033841581166e-11 0.0000000000000000e+00  1.0286936848257347e-05 9.2282240140841167e-09 0.00000000