<?xml version="1.0"?>
<VTKFile type="UnstructuredGrid"  version="0.1"  >
<UnstructuredGrid>
<Piece  NumberOfPoints="1079" NumberOfCells="1944">
<Points>
<DataArray  type="Float64"  NumberOfComponents="3"  format="ascii">0.08500000000000001 0.02 0  0.005 0.02 0  0.005 0.03 0  0 0.03 0  0 0 0  0.005 0 0  0.005 0.01 0  0.08500000000000001 0.01 0  0 0.015 0  0 0.0075 0  0 0.0225 0  0.04500000000000001 0.02 0  0.04500000000000001 0.01 0  0.025 0.01 0  0.025 0.02 0  0.065 0.02 0  0.065 0.01 0  0.035 0.02 0  0.035 0.01 0  0.07500000000000001 0.02 0  0.07500000000000001 0.01 0  0.015 0.02 0  0.015 0.01 0  0.05500000000000001 0.01 0  0.05500000000000001 0.02 0  0.07000000000000001 0.01 0  0.07000000000000001 0.02 0  0.05 0.01 0  0.03 0.01 0  0.03 0.02 0  0.04000000000000001 0.01 0  0.01 0.01 0  0.02 0.02 0  0.06 0.015 0  0.08500000000000001 0.015 0  0.05 0.02 0  0.07250000000000001 0.015 0  0.04000000000000001 0.02 0  0.03750000000000001 0.015 0  0.0525 0.015 0  0.02 0.01 0  0.01 0.02 0  0.0275 0.015 0  0.0125 0.015 0  0.08000000000000002 0.01 0  0.08000000000000002 0.02 0  0.0325 0.014375 0  0.04291666666666667 0.015 0  0.065 0.015 0  0.005 0.005 0  0.005 0.015 0  0.02208333333333334 0.015 0  0.07791666666666668 0.015 0  0.005 0.025 0  0.06 0.01 0  0.06 0.02 0  0.01729166666666667 0.01572916666666667 0  0.04770833333333334 0.01427083333333334 0  0.06875000000000001 0.01625 0  0.008750000000000001 0.01625 0  0.05625000000000001 0.01625 0  0 0.00375 0  0 0.01875 0  0 0.01125 0  0 0.02625 0  0.08145833333333334 0.01354166666666667 0  0.0675 0.01 0  0.0075 0.0125 0  0.0625 0.0175 0  0.0575 0.0125 0  0.0625 0.0125 0  0.08207465277777778 0.01707465277777778 0  0.06767857142857144 0.01321428571428571 0  0.0175 0.01 0  0.01875 0.01291382575757576 0  0.0475 0.02 0  0.04564168086314595 0.01679860519591141 0  0.00296875 0.0125 0  0.0025 0.03 0  0.0025 0 0  0.00296875 0.0175 0  0.01521990740740741 0.0132349537037037 0  0.0497800925925926 0.0167650462962963 0  0.0325 0.02 0  0.03474264705882353 0.01674632352941176 0  0.03750000000000001 0.02 0  0.03025735294117647 0.01674632352941176 0  0.0275 0.02 0  0.0525 0.02 0  0.0125 0.01 0  0.04020833333333334 0.01322916666666667 0  0.03750000000000001 0.01 0  0.0225 0.02 0  0.02479166666666667 0.01677083333333333 0  0.07520833333333335 0.01322916666666667 0  0.07250000000000001 0.01 0  0.07520833333333335 0.01677083333333334 0  0.07250000000000001 0.02 0  0.04020833333333334 0.01677083333333333 0  0.0225 0.01 0  0.02375 0.01262152777777778 0  0.04250000000000001 0.02 0  0.04250000000000001 0.01 0  0.07750000000000001 0.01 0  0.07750000000000001 0.02 0  0.05036151960784314 0.01294424019607843 0  0.0705560064935065 0.01284699675324675 0  0.05458333333333334 0.01291666666666666 0  0.0021875 0.024375 0  0.005 0.0275 0  0.01125 0.0175 0  0.01463848039215686 0.01705575980392157 0  0.01 0.01375 0  0.03625 0.0125 0  0.0021875 0.009375 0  0.05375000000000001 0.0175 0  0.07125000000000001 0.0175 0  0.005 0.0025 0  0.0021875 0.005625 0  0.02655220103578155 0.01234889948210923 0  0.002187499999999999 0.020625 0  0.02979166666666667 0.01302083333333333 0  0.0525 0.01 0  0.07895833333333334 0.0125 0  0.01994277885235332 0.01704213007736944 0  0.07934656179076068 0.01733823814273861 0  0.04505722114764669 0.01295786992263056 0  0.06625 0.0175 0  0.006250000000000001 0.0175 0  0.05750000000000001 0.02 0  0.05875000000000001 0.0175 0  0.005 0.0225 0  0.005 0.0075 0  0.002375 0.027375 0  0.002375 0.002625000000000001 0  0.0475 0.01 0  0.0175 0.02 0  0.0325 0.01 0  0.03375 0.0121875 0  0.04261299435028249 0.01749205508474576 0  0.08500000000000001 0.0125 0  0.08250000000000002 0.01 0  0.02121963399965531 0.01224824108143494 0  0.0675 0.02 0  0.0125 0.02 0  0.02720152243589744 0.0175 0  0.03715165441176471 0.0175 0  0.08500000000000001 0.0175 0  0.0275 0.01 0  0.0025 0.0149560546875 0  0.0075 0.01 0  0.0075 0.02 0  0.06526785714285716 0.0125 0  0.01281031447005516 0.0125 0  0.0625 0.015 0  0.06 0.0125 0  0.05750000000000001 0.01 0  0.0625 0.02 0  0.0625 0.01 0  0.08250000000000002 0.02 0  0.04260103740101855 0.01252623201412851 0  0.02240052247582197 0.01750164767101344 0  0.07293583459427785 0.01238479732953041 0  0.005234374999999999 0.012265625 0  0.03528131980640358 0.01454684009679821 0  0.0325 0.01760027210036557 0  0.02532593822924343 0.01428227733767297 0  0.08009952069819683 0.01527145502895417 0  0.01987282359856536 0.01482587683689801 0  0.04828232595121382 0.01210233572595705 0  0.01671767404878618 0.01789766427404295 0  0.05125 0.01829007549029352 0  0.05247215456215357 0.01288882122882024 0  0.07338729919678716 0.01799385040160642 0  0.03838729919678716 0.01200614959839357 0  0.07717482110586968 0.01780301674207099 0  0.04771860040890012 0.01773306039388322 0  0.03125 0.01160380747126437 0  0.06875000000000001 0.01154265873015873 0  0.07625000000000001 0.01154065860215054 0  0.01625 0.01153997817696946 0  0.068125 0.018125 0  0.05437500000000001 0.015625 0  0.066875 0.015625 0  0.07039794950204951 0.01494384850614853 0  0.05687500000000001 0.018125 0  0.006875 0.015625 0  0.008749999999999999 0.01833333333333333 0  0.010625 0.015625 0  0.05625 0.01416666666666667 0  0.05812500000000001 0.015625 0  0.0449088595298192 0.01494528408816316 0  0 0.016875 0  0 0.013125 0  0.04962452342047931 0.01478673066448802 0  0.0153754765795207 0.01521326933551198 0  0.0771774565913315 0.01322498191305479 0  0.01857756431135545 0.01840228599899994 0  0.04642243568864456 0.01159771400100006 0  0.08125000000000002 0.01155637254901961 0  0.08317650804863432 0.0118234919513657 0  0.08288217288011697 0.01511353252923977 0  0.02837253504384828 0.0117177464035174 0  0.03896057962520807 0.01831163685754031 0  0.01125 0.0114244162490927 0  0.00935910490099115 0.0119067901980177 0  0.02946078431372549 0.01495404411764706 0  0.02875 0.0185829434466942 0  0.002968749999999999 0.0225 0  0.064375 0.016875 0  0.00296875 0.0075 0  0 0.001875 0  0 0.005625 0  0 0.009375 0  0 0.020625 0  0 0.024375 0  0 0.028125 0  0.06062500000000001 0.01812500000000001 0  0.008303571428571429 0.01446428571428572 0  0.01375 0.01865917058160413 0  0.05137790313978056 0.01143372888932909 0  0.04125000000000001 0.01131513063942604 0  0.04101690263896279 0.01844430285842771 0  0.02399563533148224 0.01844349395710867 0  0.08125000000000002 0.01868815426145731 0  0.05354684380692146 0.01145463537600848 0  0.01699195823639423 0.01315138909884649 0  0.07598357371794873 0.015 0  0.04098357371794872 0.015 0  0.003744047619047619 0.00375 0  0.003344630281690141 0.02580853873239437 0  0.04625 0.0187354532243972 0  0.06388392857142858 0.01138392857142858 0  0.06375 0.01375 0  0.05875 0.01375 0  0.06375 0.02 0  0.00622802734375 0.01372802734375 0  0.003630681818181818 0.001369318181818182 0  0.003630681818181818 0.02863068181818182 0  0.06125 0.01625 0  0.06125 0.01125 0  0.05625000000000001 0.01 0  0.05875 0.01125 0  0.06125 0.01375 0  0.08337864763241221 0.0183786476324122 0  0.05213634138653413 0.01674432930673294 0  0.04375000000000001 0.01 0  0.07424178685897437 0.01529258578431373 0  0.03924178685897436 0.01529258578431372 0  0.03410139294454583 0.01843406022904556 0  0.03089860705545417 0.01843406022904556 0  0.02094160484316717 0.01850229584291991 0  0.04375000000000001 0.02 0  0.04437042160883325 0.01820701498672512 0  0.04816311705429156 0.01600061344661149 0  0.07151224904251052 0.0114127410511319 0  0.04395528506193162 0.01639387970349481 0  0.0128750358694518 0.0167500179347259 0  0.02855808448399799 0.01642839899839741 0  0.02812690373330794 0.01340955081400569 0  0.08358500641945087 0.01351822349116885 0  0.05590277777777778 0.01173611111111111 0  0.06683110430364615 0.01164926404662283 0  0.02573206694914602 0.01842532451809762 0  0.01438126661842046 0.01166701193099454 0  0.02384283211216029 0.01526549696571563 0  0.03625 0.02 0  0.004609375000000001 0.0182421875 0  0.003398437500000001 0.01943359375 0  0.001728307845744682 0.01894718251329787 0  0.004377805359085963 0.01656966216675735 0  0.04649673309852075 0.0153889662370871 0  0.03615513600614297 0.01592654988586041 0  0.03316985071935832 0.01598763605018279 0  0.03110111603888768 0.01529816275177977 0  0.01370614113484869 0.0138804542047638 0  0.04930041102671841 0.01842260568883502 0  0.07875000000000001 0.02 0  0.0745395359848485 0.01165101111925709 0  0.03860755698543604 0.01373741558556884 0  0.02605038706571737 0.01573944002207753 0  0.07559826163500957 0.01841729376139847 0  0.04437500000000001 0.01149157931286774 0  0.06874116707361365 0.01454618473032123 0  0.003761917372881356 0.0239307468220339 0  0.003984374999999999 0.01125 0  0.003768503289473684 0.01392539576480263 0  0.001796875 0.0111328125 0  0.003761917372881356 0.008930746822033899 0  0.005 0.00625 0  0.003761917372881355 0.0210692531779661 0  0.06633928571428571 0.01410714285714285 0  0.006484375 0.01125 0  0.08364120589325512 0.01657288979763549 0  0.03576267476503373 0.0184116442851204 0  0.07370875846579374 0.0137848203678562 0  0.06964285714285715 0.01758928571428571 0  0.05520833333333334 0.01833333333333333 0  0.06491071428571429 0.01839285714285714 0  0.0510098951944636 0.01559941474766356 0  0.01786087179886325 0.0115702210443714 0  0.01972197383235524 0.01160576093166696 0  0.01804697593127788 0.01433503795474974 0  0.001644074528704677 0.01642892723865279 0  0.00125 0.03 0  0.001497685185185185 0.001267746913580247 0  0.07315451164202422 0.01643443118912983 0  0.001233906745910645 0.0140625 0  0.01162635071030191 0.01362229857939618 0  0.01528023503083844 0.01845923557506155 0  0.06625 0.02 0  0.07695012019230771 0.01624387078484555 0  0.03139091092855769 0.01320776147621796 0  0.03857339107781042 0.01675295051810485 0  0.001754993120977522 0.02590789105493891 0  0.002288757784711197 0.00412546923654445 0  0.07914382119690884 0.01404430049871201 0  0.001391810103286306 0.01257390899021902 0  0.0419501201923077 0.01614675005432421 0  0.001484375 0.007018229166666667 0  0.001484375 0.02201822916666666 0  0.048
[...]
<PointData  Vectors="velocity"> 
<DataArray  type="Float64"  Name="velocity"  NumberOfComponents="3" format="ascii">2.6552894443013947e-06 1.9358452785268489e-20 0.0000000000000000e+00  5.5041959598333332e-20 -6.1306898089200544e-20 0.0000000000000000e+00  2.4195032917176125e-18 -1.2915496650148920e-04 0.0000000000000000e+00  -2.8330935979941290e-18 -1.2915496650148906e-04 0.0000000000000000e+00  -2.7296960214250029e-18 1.2915496650148906e-04 0.0000000000000000e+00  2.4815418376590942e-18 1.2915496650148898e-04 0.0000000000000000e+00  5.3404358819508859e-20 4.8530608992803504e-20 0.0000000000000000e+00  2.7270206874704155e-06 -1.9818096966439562e-20 0.0000000000000000e+00  6.4653420375059580e-21 -1.0733477991953250e-22 0.0000000000000000e+00  -7.0381525844637792e-22 4.8401201331218866e-20 0.0000000000000000e+00  2.5242719756172544e-22 -5.6344967765019861e-20 0.0000000000000000e+00  5.2733711885096630e-20 -1.9547237582427601e-22 0.0000000000000000e+00  4.4844463944966706e-20 2.7084435348552274e-22 0.0000000000000000e+00  5.1697318361641123e-20 1.5272973518079375e-22 0.0000000000000000e+00  4.3805504757760294e-20 -1.7625362694221074e-22 0.0000000000000000e+00  4.8360418405145363e-20 1.4558227177839700e-22 0.0000000000000000e+00  4.8810365101805989e-20 6.4628420013515300e-23 0.0000000000000000e+00  3.8948410689174844e-20 -9.5155767494611019e-23 0.0000000000000000e+00  5.8525396274098888e-20 -3.8647135830328875e-23 0.0000000000000000e+00  4.8470527519057762e-20 3.1168807096063632e-22 0.0000000000000000e+00  4.4638783625991300e-20 1.6944453530346275e-22 0.0000000000000000e+00  3.8974298550968216e-20 -1.1826046226054112e-22 0.0000000000000000e+00  3.9080214622058157e-20 -9.7196961481136873e-23 0.0000000000000000e+00  5.0478965561565184e-20 -5.7141014597730804e-22 0.0000000000000000e+00  4.6708765353675962e-20 2.0998614602080739e-22 0.0000000000000000e+00  4.4397072974728656e-20 7.9912010945628324e-23 0.0000000000000000e+00  5.3082118986425472e-20 -1.9625496894395294e-22 0.0000000000000000e+00  5.0198169474118754e-20 1.6004083459499355e-22 0.0000000000000000e+00  5.1481444370697014e-20 1.8312592195520915e-23 0.0000000000000000e+00  4.0079625241740391e-20 -1.0479946166513159e-22 0.0000000000000000e+00  4.6409619605125161e-20 1.5807699337386030e-22 0.0000000000000000e+00  4.8404291112123259e-20 2.7889191168117894e-22 0.0000000000000000e+00  4.2410295322261892e-20 -8.6238448413370747e-23 0.0000000000000000e+00  6.7731727421753750e-06 -9.8997689133553100e-10 0.0000000000000000e+00  6.5050820130659335e-06 9.0668646759647342e-24 0.0000000000000000e+00  4.3416493820833613e-20 3.2069950172289390e-23 0.0000000000000000e+00  6.7730478183719421e-06 2.2833903974622169e-09 0.0000000000000000e+00  4.9774826460398584e-20 -4.5673392499407601e-22 0.0000000000000000e+00  6.7674098841559841e-06 -3.2942464980944248e-09 0.0000000000000000e+00  6.7661174171369816e-06 -3.6866232449237768e-10 0.0000000000000000e+00  4.4709442856477816e-20 2.1458273258365800e-23 0.0000000000000000e+00  4.8826095072165463e-20 -9.5653914045248008e-22 0.0000000000000000e+00  6.7669902255748747e-06 -1.7535133601278849e-10 0.0000000000000000e+00  6.7528766911207670e-06 -2.6122432776040409e-08 0.0000000000000000e+00  4.4015565359814809e-20 -1.6530069572654863e-22 0.0000000000000000e+00  4.7474218148486435e-20 8.7677884961300158e-22 0.0000000000000000e+00  6.7654239536204428e-06 1.9856898412787199e-10 0.0000000000000000e+00  6.7722824410924152e-06 -6.6028763555341755e-10 0.0000000000000000e+00  6.7704557950291791e-06 -5.6976585566948197e-10 0.0000000000000000e+00  -3.5329880994443452e-21 6.0110558086320700e-20 0.0000000000000000e+00  5.1162564549353940e-06 -2.6592826040898138e-07 0.0000000000000000e+00  6.7643621792436610e-06 1.6588873962376036e-09 0.0000000000000000e+00  6.7625969085583096e-06 3.4814975854249633e-10 0.0000000000000000e+00  -5.3546415476992499e-21 -7.2060434965106841e-20 0.0000000000000000e+00  4.2813059048155144e-20 1.0696953874797019e-22 0.0000000000000000e+00  4.9948459391257511e-20 6.0307031084850114e-22 0.0000000000000000e+00  6.7675455947109563e-06 -2.3793334429746766e-09 0.0000000000000000e+00  6.7697092855384888e-06 1.7902818980752685e-09 0.0000000000000000e+00  6.7705069626736430e-06 -1.7272084808397274e-09 0.0000000000000000e+00  6.6662564775785222e-06 -2.1492869908055347e-07 0.0000000000000000e+00  6.7656929733048168e-06 -5.0900847124583948e-09 0.0000000000000000e+00  -3.0050351368792399e-20 9.5637259169315402e-21 0.0000000000000000e+00  2.6970747157684553e-21 -2.6784742004872937e-20 0.0000000000000000e+00  3.9777159726165770e-21 2.7358046508494106e-20 0.0000000000000000e+00  -3.3607078776333848e-20 9.2955749806880855e-21 0.0000000000000000e+00  6.7004299424637902e-06 -6.4734931861589822e-08 0.0000000000000000e+00  4.1045631065242721e-20 -1.2399201050958738e-22 0.0000000000000000e+00  6.6734458213107336e-06 3.8485054946399611e-07 0.0000000000000000e+00  6.7578953874512700e-06 1.9117226028836486e-10 0.0000000000000000e+00  6.7609192073186324e-06 5.7098285309289480e-10 0.0000000000000000e+00  6.7669760076335439e-06 -2.9049119725360075e-09 0.0000000000000000e+00  6.6931254528031447e-06 1.2377883226295266e-07 0.0000000000000000e+00  6.7662304848968746e-06 -1.3711435167009736e-09 0.0000000000000000e+00  4.5458229609592026e-20 -8.0568046689926894e-24 0.0000000000000000e+00  6.7607999427673802e-06 -1.0475829937335910e-10 0.0000000000000000e+00  5.4781954721528734e-20 8.2472520897176454e-22 0.0000000000000000e+00  6.7722722805669875e-06 -5.1592193098579701e-09 0.0000000000000000e+00  3.2374311802283763e-06 2.6422147036856299e-06 0.0000000000000000e+00  -1.5053342081835555e-19 -1.2915496650148968e-04 0.0000000000000000e+00  -2.1805475366999178e-19 1.2915496650148977e-04 0.0000000000000000e+00  3.3517770110663459e-06 -3.2950523581534241e-06 0.0000000000000000e+00  6.7581900937060277e-06 -9.4549660674069151e-09 0.0000000000000000e+00  6.7640499642175286e-06 6.0792776385678347e-09 0.0000000000000000e+00  4.7141798060805777e-20 4.1333511552387234e-22 0.0000000000000000e+00  6.7634693688766168e-06 -2.0868082803863686e-09 0.0000000000000000e+00  4.8134432343791766e-20 2.9226995379374405e-22 0.0000000000000000e+00  6.7647746906744783e-06 -2.1496326493151389e-09 0.0000000000000000e+00  5.4260523144841846e-20 1.0410454262719193e-22 0.0000000000000000e+00  4.5741841457997447e-20 -8.1851240591923589e-24 0.0000000000000000e+00  5.0334047920783208e-20 2.8947538849594190e-22 0.0000000000000000e+00  6.7669586792819149e-06 2.0937808500050818e-09 0.0000000000000000e+00  4.7118828481414308e-20 1.6870432573781785e-22 0.0000000000000000e+00  5.0022138996025455e-20 1.2854502464013103e-22 0.0000000000000000e+00  6.7626931307665266e-06 5.1970829412735156e-10 0.0000000000000000e+00  6.7692810186490315e-06 1.0785901007616296e-09 0.0000000000000000e+00  4.9313806573685564e-20 1.7800067919251836e-23 0.0000000000000000e+00  6.7679857608565412e-06 4.6437676817486391e-09 0.0000000000000000e+00  5.3031978274000158e-20 5.5510306832360598e-22 0.0000000000000000e+00  6.7711154865694212e-06 -8.5957333496389570e-09 0.0000000000000000e+00  4.5083285992221779e-20 1.5849592731640468e-23 0.0000000000000000e+00  6.7568513582455959e-06 4.5582220141289395e-09 0.0000000000000000e+00  5.0707078113147289e-20 7.3360934770178374e-24 0.0000000000000000e+00  4.8110511816479471e-20 4.3782344743426780e-22 0.0000000000000000e+00  4.8678838136049218e-20 8.3074409322079075e-22 0.0000000000000000e+00  5.0613154925005012e-20 -3.3392092439809172e-22 0.0000000000000000e+00  6.7684075233913306e-06 5.1267056781625764e-09 0.0000000000000000e+00  6.7699907686628566e-06 8.0036336228711443e-09 0.0000000000000000e+00  6.7680158231392426e-06 8.3573381958044885e-10 0.0000000000000000e+00  -1.4140204316350774e-06 -7.4372135796838791e-06 0.0000000000000000e+00  8.9162720587582859e-21 -1.0334100116577726e-19 0.0000000000000000e+00  6.7920510062863989e-06 -5.7296300811854711e-08 0.0000000000000000e+00  6.7776414356453609e-06 -1.8857570687810372e-08 0.0000000000000000e+00  6.6878236849083129e-06 1.6857516714727657e-08 0.0000000000000000e+00  6.7518853795554005e-06 -7.2510611965806607e-09 0.0000000000000000e+00  1.1359463593383191e-06 6.0481458603290762e-06 0.0000000000000000e+00  6.7577728399479012e-06 -1.1760904795857916e-11 0.0000000000000000e+00  6.7721380129553763e-06 -2.0490395344059823e-12 0.0000000000000000e+00  1.9863408749046321e-20 5.5574973139075532e-20 0.0000000000000000e+00  -1.2477317879581706e-06 6.4303906496524963e-06 0.0000000000000000e+00  6.7568351085759876e-06 -4.6322358585381984e-09 0.0000000000000000e+00  1.1310514146334614e-06 -6.9663637031971826e-06 0.0000000000000000e+00  6.7684819998010832e-06 -1.1245846114995396e-09 0.0000000000000000e+00  4.5353088188433751e-20 -3.7951381431126077e-22 0.0000000000000000e+00  6.7553450790374262e-06 -2.0635549822962960e-08 0.0000000000000000e+00  6.7618060107339013e-06 5.6000733064682839e-11 0.0000000000000000e+00  6.7588443105771043e-06 3.1202298896708517e-08 0.0000000000000000e+00  6.7701484414532529e-06 -1.5061570055874849e-09 0.0000000000000000e+00  6.7672264540607905e-06 -7.9943718019834399e-09 0.0000000000000000e+00  6.7551257586197642e-06 -1.2450729488894975e-06 0.0000000000000000e+00  5.0937399669094501e-20 -6.8825437675723303e-22 0.0000000000000000e+00  6.7549172141579796e-06 -2.4072394637566049e-09 0.0000000000000000e+00  6.5718281943163569e-22 -6.1332012750645801e-20 0.0000000000000000e+00  4.8915203242823163e-22 5.4692957321174884e-20 0.0000000000000000e+00  -1.5468434231178882e-05 -1.6996933426173396e-05 0.0000000000000000e+00  -1.2586204243330625e-05 1.3968095144642603e-05 0.0000000000000000e+00  4.6234975008546210e-20 1.5577213259715275e-23 0.0000000000000000e+00  5.4002393520841673e-20 7.8509325190231114e-22 0.0000000000000000e+00  4.3832325216453414e-20 7.6032836482324260e-23 0.0000000000000000e+00  6.7552385489442467e-06 8.2342191653290901e-09 0.0000000000000000e+00  6.7580630958902488e-06 4.9696032077414172e-09 0.0000000000000000e+00  6.1477353500348903e-06 -1.6887128902568210e-21 0.0000000000000000e+00  4.5910385144981418e-20 -1.7216394429368032e-21 0.0000000000000000e+00  6.7579471978629912e-06 1.9072884528173067e-09 0.0000000000000000e+00  4.9202108537399485e-20 3.3154522656641075e-22 0.0000000000000000e+00  4.5004273892417819e-20 -9.0595259944476055e-23 0.0000000000000000e+00  6.7645889072474582e-06 -8.6096193122402765e-10 0.0000000000000000e+00  6.7719369928935789e-06 7.2415420489486094e-10 0.0000000000000000e+00  6.1407155311672730e-06 2.0948809739764800e-21 0.0000000000000000e+00  4.8726711496750664e-20 -5.9513256933034840e-22 0.0000000000000000e+00  2.5166350764639466e-06 -2.4543780219118955e-07 0.0000000000000000e+00  5.2601304136503753e-20 1.5787240369093900e-21 0.0000000000000000e+00  5.8460628302780527e-20 -2.2874181589988802e-21 0.0000000000000000e+00  6.7648819329970504e-06 -3.0310979713763403e-09 0.0000000000000000e+00  6.7414004304394598e-06 -8.0620400789121429e-09 0.0000000000000000e+00  6.7737866281875530e-06 4.6405401720784447e-11 0.0000000000000000e+00  6.7610056012088966e-06 4.2641266195810575e-09 0.0000000000000000e+00  5.0850048767299282e-20 5.2846513991911272e-23 0.0000000000000000e+00  5.4650509642703488e-20 1.6145211056423421e-22 0.0000000000000000e+00  4.4597411975587727e-20 -9.0398650326117446e-22 0.0000000000000000e+00  4.3476478625592948e-20 9.9068110423322725e-22 0.0000000000000000e+00  6.7597461439098091e-06 -1.0894906283327259e-09 0.0000000000000000e+00  6.7605850221183375e-06 2.5665992267992696e-09 0.0000000000000000e+00  6.7589994658553890e-06 -2.2350797249773493e-09 0.0000000000000000e+00  6.1298078099352032e-06 1.8284222795014884e-06 0.0000000000000000e+00  6.7684043700888858e-06 -1.9458640611143261e-09 0.0000000000000000e+00  6.7573540293669456e-06 2.1891448368194883e-09 0.0000000000000000e+00  6.7667425270379087e-06 1.9871554547131579e-09 0.0000000000000000e+00  6.7291015085341132e-06 7.5661769596799991e-09 0.0000000000000000e+00  6.7636644814035540e-06 4.7284683545956132e-10 0.0000000000000000e+00  6.7422648425757816e-06 1.8580362579794728e-09 0.0000000000000000e+00  6.7579599602282711e-06 1.2515439507150383e-09 0.0000000000000000e+00  6.7290384117180764e-06 4.9432273033068320e-10 0.0000000000000000e+00  6.7657779121747361e-06 -6.4935090383263656e-09 0.0000000000000000e+00  6.7455933838745612e-06 3.9615657266591104e-09 0.0000000000000000e+00  6.7393597118049391e-06 -2.4926262867926813e-09 0.0000000000000000e+00  6.7548698864190303e-06 2.7702001040222396e-09 0.0000000000000000e+00  6.7644113726693137e-06 8.4385963743732158e-09 0.0000000000000000e+00  6.7188205895938870e-06 -7.8221228397974046e-09 0.0000000000000000e+00  6.7182359600068655e-06 7.3167178245165329e-09 0.0000000000000000e+00  6.7292580990730479e-06 -1.0419836401053678e-09 0.0000000000000000e+00  6.7154630500449350e-06 -4.8668228064705000e-09 0.0000000000000000e+00  6.7325212230240277e-06 -4.1146409631996532e-09 0.0000000000000000e+00  6.7653595092072800e-06 -1.8419896488658465e-09 0.0000000000000000e+00  6.7692429606003493e-06 -1.2503437771993914e-09 0.0000000000000000e+00  6.7722133933912131e-06 1.5886793623744389e-09 0.0000000000000000e+00  6.7393807509014574e-06 -6.3843871090969010e-09 0.0000000000000000e+00  6.2024183754183754e-06 -3.7938215031999795e-07 0.0000000000000000e+00  6.9277343374803593e-06 -2.0535083832571950e-07 0.0000000000000000e+00  6.7253383380655499e-06 -6.5608739664266393e-08 0.0000000000000000e+00  6.7678004267947739e-06 -2.0642726905428974e-09 0.0000000000000000e+00  6.7714039902382386e-06 -4.5447630991889330e-09 0.0000000000000000e+00  6.7715790057349837e-06 -1.0726553514448005e-09 0.0000000000000000e+00  4.3038157181914377e-21 -1.7973644497116666e-20 0.0000000000000000e+00  6.4284521527149606e-21 1.5258230032708314e-20 0.0000000000000000e+00  6.7679635599583770e-06 3.2583573203370442e-09 0.0000000000000000e+00  6.7664929711595687e-06 -1.0723022862447577e-08 0.0000000000000000e+00  6.7726223600521797e-06 1.3165442391243801e-09 0.0000000000000000e+00  6.7202684185221436e-06 3.0160509276038140e-09 0.0000000000000000e+00  6.7333456981481096e-06 3.6227664446170432e-09 0.0000000000000000e+00  6.7703237602621931e-06 -9.1017741828161624e-08 0.0000000000000000e+00  6.6844388156439041e-06 -4.2014054263909944e-07 0.0000000000000000e+00  6.5951717100720707e-06 7.2218699481301665e-09 0.0000000000000000e+00  6.7240636540181013e-06 5.8669621547475254e-09 0.0000000000000000e+00  6.7257130232648657e-06 -5.8100823494748462e-10 0.0000000000000000e+00  6.4640873598903266e-06 2.8990743692490154e-09 0.0000000000000000e+00  6.7446016248222773e-06 8.8936676714161152e-08 0.0000000000000000e+00  6.7663171622595691e-06 -9.4225057200331996e-10 0.0000000000000000e+00  6.6997773895051195e-06 7.9506483129989712e-09 0.0000000000000000e+00  5.4196025777761258e-08 -7.9623854977853618e-06 0.0000000000000000e+00  6.7674743519723496e-06 4.1823088355714429e-09 0.0000000000000000e+00  7.7503007709595699e-08 6.9024152770977057e-06 0.0000000000000000e+00  -2.9015952892857208e-19 -2.9493760921437732e-19 0.0000000000000000e+00  -5.3043573299442010e-21 3.9938690484285745e-20 0.0000000000000000e+00  2.7033933646841185e-21 4.5960482849438373e-20 0.0000000000000000e+00  2.5032150187440623e-21 -4.6424249433465727e-20 0.0000000000000000e+00  -5.6636796591871456e-21 -5.0713315113455541e-20 0.0000000000000000e+00  -3.1507832736397319e-19 2.4180190849059413e-19 0.0000000000000000e+00  6.7449650558349100e-06 -4.6839201152894155e-09 0.0000000000000000e+00  6.5056782345117145e-06 -3.5812341939438713e-09 0.0000000000000000e+00  6.5062245603643663e-06 -1.5589261746987486e-08 0.0000000000000000e+00  6.4993069650914003e-06 2.2728642467101667e-09 0.0000000000000000e+00  6.5026349750983961e-06 -9.0042846031899872e-10 0.0000000000000000e+00  6.4971337994274606e-06 7.1730973915409685e-09 0.0000000000000000e+00  6.7100664582227532e-06 8.8887645209473701e-09 0.0000000000000000e+00  6.7390573445979128e-06 9.8087925935205706e-08 0.0000000000000000e+00  6.7122262218371955e-06 -1.1658080029171988e-09 0.0000000000000000e+00  6.7590747889202579e-06 -3.8241739643229335e-09 0.0000000000000000e+00  6.7689860829509038e-06 1.9034180035842888e-09 0.0000000000000000e+00  6.7711815269686971e-06 -1.4900973100855686e-09 0.0000000000000000e+00  -1.2181020232636865e-06 9.9918261491018283e-06 0.0000000000000000e+00  -2.4899201165623699e-06 -1.0401971517009447e-05 0.0000000000000000e+00  6.5182241796476095e-06 -2.2187417180771299e-08 0.0000000000000000e+00  6.6985021257252901e-06 8.3799739240514207e-09 0.0000000000000000e+00  6.7719346127701284e-06 -1.3597801430692853e-09 0.0000000000000000e+00  6.7704789060689995e-06 -1.5457815413127806e-09 0.0000000000000000e+00  4.7243882258823451e-20 5.4888653490920927e-22 0.0000000000000000e+00  5.9890381260381548e-06 4.3706687248619391e-07 0.0000000000000000e+00  2.7795952984845731e-05 3.2494599249973913e-05 0.0000000000000000e+00  2.8204082403228046e-05 -3.4644385207163160e-05 0.0000000000000000e+00  6.7744420271210291e-06 -1.0882717623434763e-09 0.0000000000000000e+00  6.4505445058633886e-06 6.4954625453913275e-09 0.0000000000000000e+00  4.8277884566135713e-20 1.4444342439475787e-22 0.0000000000000000e+00  6.4797611159410264e-06 -1.0432860799647302e-08 0.0000000000000000e+00  6.7745056029120824e-06 1.1950720888831038e-09 0.0000000000000000e+00  6.6820542479396328e-06 5.3775756855196392e-07 0.0000000000000000e+00  6.7628728648819518e-06 2.7673983003890860e-10 0.0000000000000000e+00  4.9920972785673125e-20 -4.7690677141925278e-22 0.0000000000000000e+00  6.7709126918010918e-06 2.7186695558756206e-09 0.0000000000000000e+00  6.7683143846986647e-06 -3.0181618873539135e-09 0.0000000000000000e+00  6.7125890371527961e-06 -2.2914525681228460e-09 0.0000000000000000e+00  6.7307529689152425e-06 1.2838171938994844e-09 0.0000000000000000e+00  6.7140814385587449e-06 -5.0824036819344285e-09 0.0000000000000000e+00  4.7306210974160962e-20 3.9889728837827065e-22 0.0000000000000000e+00  6.7347028385711624e-06 -1.9604144830972884e-09 0.0000000000000000e+00  6.7716164515916298e-06 5.3913781554474019e-09 0.0000000000000000e+00  6.5140395949779894e-06 1.5274118438855118e-08 0.0000000000000000e+00  6.7705466598983578e-06 -2.9262907613133174e-10 0.0000000000000000e+00  6.7713907839530309e-06 -3.3366013505733948e-08 0.0000000000000000e+00  6.7654958247567316e-06 9.3649661031290962e-10 0.0000000000000000e+00  6.7663603373002771e-06 -1.5893335042957425e-09 0.0000000000000000e+00  6.5305949121000828e-06 -1.0233039366719881e-07 0.0000000000000000e+00  6.7302606179520510e-06 4.1023042022183688e-09 0.0000000000000000e+00  6.7276162060867195e-06 -6.0250586008068872e-09 0.0000000000000000e+00  6.7208929758914818e-06 -4.3493837940317576e-09 0.0000000000000000e+00  6.7327585655112942e-06 -1.0901837461345101e-08 0.0000000000000000e+00  6.7650488637782263e-06 2.0959419709144461e-09 0.0000000000000000e+00  5.1253519186352854e-20 -5.7774614261402218e-22 0.0000000000000000e+00  6.2621671061556142e-06 -3.6200157046286957e-06 0.0000000000000000e+00  3.6980886514736949e-06 -6.8150192922140546e-06 0.0000000000000000e+00  1.5770143481827773e-06 -5.1221955695409273e-06 0.0000000000000000e+00  4.8402999774652992e-06 -1.7324686327532680e-06 0.0000000000000000e+00  6.7726232953410321e-06 3.5359970675033892e-10 0.0000000000000000e+00  6.7670756572625278e-06 -3.5711111385284711e-09 0.0000000000000000e+00  6.7662383420282368e-06 5.7519553716905596e-10 0.0000000000000000e+00  6.7660866359722983e-06 -1.2933022323753683e-09 0.0000000000000000e+00  6.7572186480224855e-06 -1.4360820461282937e-08 0.0000000000000000e+00  6.7264183092266210e-06 1.4984244450680733e-08 0.0000000000000000e+00  5.2435260676054915e-20 1.0115602196181031e-22 0.0000000000000000e+00  6.7216055744963692e-06 9.3805289068465344e-09 0.0000000000000000e+00  6.7663176296366878e-06 -2.0040468100829798e-09 0.0000000000000000e+00  6.7661205956409309e-06 3.3965470055469248e-11 0.0000000000000000e+00  6.7200379724226569e-06 6.0299165800120109e-09 0.0000000