<?xml version="1.0"?>
<VTKFile type="UnstructuredGrid"  version="0.1"  >
<UnstructuredGrid>
<Piece  NumberOfPoints="1079" NumberOfCells="1944">
<Points>
<DataArray  type="Float64"  NumberOfComponents="3"  format="ascii">0.08500000000000001 0.02 0  0.005 0.02 0  0.005 0.03 0  0 0.03 0  0 0 0  0.005 0 0  0.005 0.01 0  0.08500000000000001 0.01 0  0 0.015 0  0 0.0075 0  0 0.0225 0  0.04500000000000001 0.02 0  0.04500000000000001 0.01 0  0.025 0.01 0  0.025 0.02 0  0.065 0.02 0  0.065 0.01 0  0.035 0.02 0  0.035 0.01 0  0.07500000000000001 0.02 0  0.07500000000000001 0.01 0  0.015 0.02 0  0.015 0.01 0  0.05500000000000001 0.01 0  0.05500000000000001 0.02 0  0.07000000000000001 0.01 0  0.07000000000000001 0.02 0  0.05 0.01 0  0.03 0.01 0  0.03 0.02 0  0.04000000000000001 0.01 0  0.01 0.01 0  0.02 0.02 0  0.06 0.015 0  0.08500000000000001 0.015 0  0.05 0.02 0  0.07250000000000001 0.015 0  0.04000000000000001 0.02 0  0.03750000000000001 0.015 0  0.0525 0.015 0  0.02 0.01 0  0.01 0.02 0  0.0275 0.015 0  0.0125 0.015 0  0.08000000000000002 0.01 0  0.08000000000000002 0.02 0  0.0325 0.014375 0  0.04291666666666667 0.015 0  0.065 0.015 0  0.005 0.005 0  0.005 0.015 0  0.02208333333333334 0.015 0  0.07791666666666668 0.015 0  0.005 0.025 0  0.06 0.01 0  0.06 0.02 0  0.01729166666666667 0.01572916666666667 0  0.04770833333333334 0.01427083333333334 0  0.06875000000000001 0.01625 0  0.008750000000000001 0.01625 0  0.05625000000000001 0.01625 0  0 0.00375 0  0 0.01875 0  0 0.01125 0  0 0.02625 0  0.08145833333333334 0.01354166666666667 0  0.0675 0.01 0  0.0075 0.0125 0  0.0625 0.0175 0  0.0575 0.0125 0  0.0625 0.0125 0  0.08207465277777778 0.01707465277777778 0  0.06767857142857144 0.01321428571428571 0  0.0175 0.01 0  0.01875 0.01291382575757576 0  0.0475 0.02 0  0.04564168086314595 0.01679860519591141 0  0.00296875 0.0125 0  0.0025 0.03 0  0.0025 0 0  0.00296875 0.0175 0  0.01521990740740741 0.0132349537037037 0  0.0497800925925926 0.0167650462962963 0  0.0325 0.02 0  0.03474264705882353 0.01674632352941176 0  0.03750000000000001 0.02 0  0.03025735294117647 0.01674632352941176 0  0.0275 0.02 0  0.0525 0.02 0  0.0125 0.01 0  0.04020833333333334 0.01322916666666667 0  0.03750000000000001 0.01 0  0.0225 0.02 0  0.02479166666666667 0.01677083333333333 0  0.07520833333333335 0.01322916666666667 0  0.07250000000000001 0.01 0  0.07520833333333335 0.01677083333333334 0  0.07250000000000001 0.02 0  0.04020833333333334 0.01677083333333333 0  0.0225 0.01 0  0.02375 0.01262152777777778 0  0.04250000000000001 0.02 0  0.04250000000000001 0.01 0  0.07750000000000001 0.01 0  0.07750000000000001 0.02 0  0.05036151960784314 0.01294424019607843 0  0.0705560064935065 0.01284699675324675 0  0.05458333333333334 0.01291666666666666 0  0.0021875 0.024375 0  0.005 0.0275 0  0.01125 0.0175 0  0.01463848039215686 0.01705575980392157 0  0.01 0.01375 0  0.03625 0.0125 0  0.0021875 0.009375 0  0.05375000000000001 0.0175 0  0.07125000000000001 0.0175 0  0.005 0.0025 0  0.0021875 0.005625 0  0.02655220103578155 0.01234889948210923 0  0.002187499999999999 0.020625 0  0.02979166666666667 0.01302083333333333 0  0.0525 0.01 0  0.07895833333333334 0.0125 0  0.01994277885235332 0.01704213007736944 0  0.07934656179076068 0.01733823814273861 0  0.04505722114764669 0.01295786992263056 0  0.06625 0.0175 0  0.006250000000000001 0.0175 0  0.05750000000000001 0.02 0  0.05875000000000001 0.0175 0  0.005 0.0225 0  0.005 0.0075 0  0.002375 0.027375 0  0.002375 0.002625000000000001 0  0.0475 0.01 0  0.0175 0.02 0  0.0325 0.01 0  0.03375 0.0121875 0  0.04261299435028249 0.01749205508474576 0  0.08500000000000001 0.0125 0  0.08250000000000002 0.01 0  0.02121963399965531 0.01224824108143494 0  0.0675 0.02 0  0.0125 0.02 0  0.02720152243589744 0.0175 0  0.03715165441176471 0.0175 0  0.08500000000000001 0.0175 0  0.0275 0.01 0  0.0025 0.0149560546875 0  0.0075 0.01 0  0.0075 0.02 0  0.06526785714285716 0.0125 0  0.01281031447005516 0.0125 0  0.0625 0.015 0  0.06 0.0125 0  0.05750000000000001 0.01 0  0.0625 0.02 0  0.0625 0.01 0  0.08250000000000002 0.02 0  0.04260103740101855 0.01252623201412851 0  0.02240052247582197 0.01750164767101344 0  0.07293583459427785 0.01238479732953041 0  0.005234374999999999 0.012265625 0  0.03528131980640358 0.01454684009679821 0  0.0325 0.01760027210036557 0  0.02532593822924343 0.01428227733767297 0  0.08009952069819683 0.01527145502895417 0  0.01987282359856536 0.01482587683689801 0  0.04828232595121382 0.01210233572595705 0  0.01671767404878618 0.01789766427404295 0  0.05125 0.01829007549029352 0  0.05247215456215357 0.01288882122882024 0  0.07338729919678716 0.01799385040160642 0  0.03838729919678716 0.01200614959839357 0  0.07717482110586968 0.01780301674207099 0  0.04771860040890012 0.01773306039388322 0  0.03125 0.01160380747126437 0  0.06875000000000001 0.01154265873015873 0  0.07625000000000001 0.01154065860215054 0  0.01625 0.01153997817696946 0  0.068125 0.018125 0  0.05437500000000001 0.015625 0  0.066875 0.015625 0  0.07039794950204951 0.01494384850614853 0  0.05687500000000001 0.018125 0  0.006875 0.015625 0  0.008749999999999999 0.01833333333333333 0  0.010625 0.015625 0  0.05625 0.01416666666666667 0  0.05812500000000001 0.015625 0  0.0449088595298192 0.01494528408816316 0  0 0.016875 0  0 0.013125 0  0.04962452342047931 0.01478673066448802 0  0.0153754765795207 0.01521326933551198 0  0.0771774565913315 0.01322498191305479 0  0.01857756431135545 0.01840228599899994 0  0.04642243568864456 0.01159771400100006 0  0.08125000000000002 0.01155637254901961 0  0.08317650804863432 0.0118234919513657 0  0.08288217288011697 0.01511353252923977 0  0.02837253504384828 0.0117177464035174 0  0.03896057962520807 0.01831163685754031 0  0.01125 0.0114244162490927 0  0.00935910490099115 0.0119067901980177 0  0.02946078431372549 0.01495404411764706 0  0.02875 0.0185829434466942 0  0.002968749999999999 0.0225 0  0.064375 0.016875 0  0.00296875 0.0075 0  0 0.001875 0  0 0.005625 0  0 0.009375 0  0 0.020625 0  0 0.024375 0  0 0.028125 0  0.06062500000000001 0.01812500000000001 0  0.008303571428571429 0.01446428571428572 0  0.01375 0.01865917058160413 0  0.05137790313978056 0.01143372888932909 0  0.04125000000000001 0.01131513063942604 0  0.04101690263896279 0.01844430285842771 0  0.02399563533148224 0.01844349395710867 0  0.08125000000000002 0.01868815426145731 0  0.05354684380692146 0.01145463537600848 0  0.01699195823639423 0.01315138909884649 0  0.07598357371794873 0.015 0  0.04098357371794872 0.015 0  0.003744047619047619 0.00375 0  0.003344630281690141 0.02580853873239437 0  0.04625 0.0187354532243972 0  0.06388392857142858 0.01138392857142858 0  0.06375 0.01375 0  0.05875 0.01375 0  0.06375 0.02 0  0.00622802734375 0.01372802734375 0  0.003630681818181818 0.001369318181818182 0  0.003630681818181818 0.02863068181818182 0  0.06125 0.01625 0  0.06125 0.01125 0  0.05625000000000001 0.01 0  0.05875 0.01125 0  0.06125 0.01375 0  0.08337864763241221 0.0183786476324122 0  0.05213634138653413 0.01674432930673294 0  0.04375000000000001 0.01 0  0.07424178685897437 0.01529258578431373 0  0.03924178685897436 0.01529258578431372 0  0.03410139294454583 0.01843406022904556 0  0.03089860705545417 0.01843406022904556 0  0.02094160484316717 0.01850229584291991 0  0.04375000000000001 0.02 0  0.04437042160883325 0.01820701498672512 0  0.04816311705429156 0.01600061344661149 0  0.07151224904251052 0.0114127410511319 0  0.04395528506193162 0.01639387970349481 0  0.0128750358694518 0.0167500179347259 0  0.02855808448399799 0.01642839899839741 0  0.02812690373330794 0.01340955081400569 0  0.08358500641945087 0.01351822349116885 0  0.05590277777777778 0.01173611111111111 0  0.06683110430364615 0.01164926404662283 0  0.02573206694914602 0.01842532451809762 0  0.01438126661842046 0.01166701193099454 0  0.02384283211216029 0.01526549696571563 0  0.03625 0.02 0  0.004609375000000001 0.0182421875 0  0.003398437500000001 0.01943359375 0  0.001728307845744682 0.01894718251329787 0  0.004377805359085963 0.01656966216675735 0  0.04649673309852075 0.0153889662370871 0  0.03615513600614297 0.01592654988586041 0  0.03316985071935832 0.01598763605018279 0  0.03110111603888768 0.01529816275177977 0  0.01370614113484869 0.0138804542047638 0  0.04930041102671841 0.01842260568883502 0  0.07875000000000001 0.02 0  0.0745395359848485 0.01165101111925709 0  0.03860755698543604 0.01373741558556884 0  0.02605038706571737 0.01573944002207753 0  0.07559826163500957 0.01841729376139847 0  0.04437500000000001 0.01149157931286774 0  0.06874116707361365 0.01454618473032123 0  0.003761917372881356 0.0239307468220339 0  0.003984374999999999 0.01125 0  0.003768503289473684 0.01392539576480263 0  0.001796875 0.0111328125 0  0.003761917372881356 0.008930746822033899 0  0.005 0.00625 0  0.003761917372881355 0.0210692531779661 0  0.06633928571428571 0.01410714285714285 0  0.006484375 0.01125 0  0.08364120589325512 0.01657288979763549 0  0.03576267476503373 0.0184116442851204 0  0.07370875846579374 0.0137848203678562 0  0.06964285714285715 0.01758928571428571 0  0.05520833333333334 0.01833333333333333 0  0.06491071428571429 0.01839285714285714 0  0.0510098951944636 0.01559941474766356 0  0.01786087179886325 0.0115702210443714 0  0.01972197383235524 0.01160576093166696 0  0.01804697593127788 0.01433503795474974 0  0.001644074528704677 0.01642892723865279 0  0.00125 0.03 0  0.001497685185185185 0.001267746913580247 0  0.07315451164202422 0.01643443118912983 0  0.001233906745910645 0.0140625 0  0.01162635071030191 0.01362229857939618 0  0.01528023503083844 0.01845923557506155 0  0.06625 0.02 0  0.07695012019230771 0.01624387078484555 0  0.03139091092855769 0.01320776147621796 0  0.03857339107781042 0.01675295051810485 0  0.001754993120977522 0.02590789105493891 0  0.002288757784711197 0.00412546923654445 0  0.07914382119690884 0.01404430049871201 0  0.001391810103286306 0.01257390899021902 0  0.0419501201923077 0.01614675005432421 0  0.001484375 0.007018229166666667 0  0.001484375 0.02201822916666666 0  0.048
[...]
<PointData  Vectors="velocity"> 
<DataArray  type="Float64"  Name="velocity"  NumberOfComponents="3" format="ascii">2.3333820037777800e-07 1.7459364062663037e-21 0.0000000000000000e+00  5.0007634025315036e-21 -5.3475724975616530e-21 0.0000000000000000e+00  2.1519620623449918e-19 -1.1497569953977432e-05 0.0000000000000000e+00  -2.3781442610899623e-19 -1.1497569953977413e-05 0.0000000000000000e+00  -2.3781442610899647e-19 1.1497569953977416e-05 0.0000000000000000e+00  2.1325750167382841e-19 1.1497569953977408e-05 0.0000000000000000e+00  4.5829042051919300e-21 4.3325911367145825e-21 0.0000000000000000e+00  2.3964596590569891e-07 -1.7486556146858436e-21 0.0000000000000000e+00  5.3036008901416058e-22 -3.2950198982650604e-23 0.0000000000000000e+00  -5.8466475965219583e-23 4.3716377710770169e-21 0.0000000000000000e+00  2.4819799986215341e-23 -5.0091624082401010e-21 0.0000000000000000e+00  4.6579355619608060e-21 -1.5205573061748119e-23 0.0000000000000000e+00  3.9068560091848921e-21 2.2927580953177435e-23 0.0000000000000000e+00  4.6429839494961300e-21 1.2515353299537267e-23 0.0000000000000000e+00  3.7608551564903477e-21 -1.5090241601340194e-23 0.0000000000000000e+00  4.1526881021809605e-21 1.3218418541233156e-23 0.0000000000000000e+00  4.1595799654212012e-21 5.3668804725812146e-24 0.0000000000000000e+00  3.4034665988269229e-21 -7.5442468712132893e-24 0.0000000000000000e+00  5.0529468071070071e-21 -6.0393658893405122e-24 0.0000000000000000e+00  4.2611254488737209e-21 2.6556845942050788e-23 0.0000000000000000e+00  3.7987100472683275e-21 1.5454425276587628e-23 0.0000000000000000e+00  3.7408366912759672e-21 -9.8550385217117597e-24 0.0000000000000000e+00  3.6713216260452432e-21 -8.6948337158245535e-24 0.0000000000000000e+00  4.4455907170696606e-21 -4.8632838925699153e-23 0.0000000000000000e+00  3.9895516968545261e-21 1.7801324233056275e-23 0.0000000000000000e+00  3.8629806142227137e-21 6.7301782268038039e-24 0.0000000000000000e+00  4.9069174362451692e-21 -1.6053873744673890e-23 0.0000000000000000e+00  4.4845206968741706e-21 1.4124994383351447e-23 0.0000000000000000e+00  4.5143930982735999e-21 2.6705863618467998e-24 0.0000000000000000e+00  3.6530908423461297e-21 -9.6343889402907677e-24 0.0000000000000000e+00  3.9864140916945503e-21 1.3692019180094604e-23 0.0000000000000000e+00  4.2051227903657080e-21 2.3871256847287348e-23 0.0000000000000000e+00  3.8988518197734944e-21 -7.7836304501263278e-24 0.0000000000000000e+00  5.9540598586157434e-07 -8.7069804747332292e-11 0.0000000000000000e+00  5.7184716418773793e-07 1.4478750274769311e-24 0.0000000000000000e+00  3.6098606237723462e-21 1.9114825333751234e-24 0.0000000000000000e+00  5.9539503704475282e-07 2.0072307349679042e-10 0.0000000000000000e+00  4.1601306903074874e-21 -4.0210698843291206e-23 0.0000000000000000e+00  5.9489939346624011e-07 -2.8959874404710722e-10 0.0000000000000000e+00  5.9478580310960804e-07 -3.2382672179540890e-11 0.0000000000000000e+00  4.2403003344040470e-21 1.6427230789736031e-24 0.0000000000000000e+00  4.3993055204616092e-21 -8.3503543384642115e-23 0.0000000000000000e+00  5.9486252710548856e-07 -1.5690794540425418e-11 0.0000000000000000e+00  5.9362186158020075e-07 -2.3397518088994320e-09 0.0000000000000000e+00  3.6002664618976037e-21 -1.5578076037056938e-23 0.0000000000000000e+00  4.1996570433382728e-21 7.6692148894349507e-23 0.0000000000000000e+00  5.9472480504215850e-07 1.7395051656138078e-11 0.0000000000000000e+00  5.9532770231068295e-07 -5.8057248881640393e-11 0.0000000000000000e+00  5.9516721697295108e-07 -5.0081553169494808e-11 0.0000000000000000e+00  -3.1255748591034921e-22 5.3741227428167511e-21 0.0000000000000000e+00  4.4974621589607710e-07 -2.3779227061265255e-08 0.0000000000000000e+00  5.9463149880674171e-07 1.4402583502890800e-10 0.0000000000000000e+00  5.9447665724489523e-07 3.0603065191475279e-11 0.0000000000000000e+00  -4.5004879961033467e-22 -6.6608450570711520e-21 0.0000000000000000e+00  3.8572142821686947e-21 8.4802547311259548e-24 0.0000000000000000e+00  4.4313209826358207e-21 5.3393530950148406e-23 0.0000000000000000e+00  5.9491378376748410e-07 -2.1761775262125541e-10 0.0000000000000000e+00  5.9510158268710979e-07 1.5737272323925672e-10 0.0000000000000000e+00  5.9517165298993028e-07 -1.5186671324490843e-10 0.0000000000000000e+00  5.8606230862680867e-07 -1.9029412432686601e-08 0.0000000000000000e+00  5.9474839887194219e-07 -4.4738878450764045e-10 0.0000000000000000e+00  -2.5943004653987929e-21 7.3163355550238634e-22 0.0000000000000000e+00  2.3518920764161264e-22 -2.2177537450615945e-21 0.0000000000000000e+00  3.3522606330309393e-22 2.5918149323836524e-21 0.0000000000000000e+00  -3.1730087674464139e-21 8.4911502227439236e-22 0.0000000000000000e+00  5.8901283267132015e-07 -5.6894113125952303e-09 0.0000000000000000e+00  3.5401856793771847e-21 -1.0989593603893925e-23 0.0000000000000000e+00  5.8647871931541019e-07 3.3671378555154227e-08 0.0000000000000000e+00  5.9406285910209448e-07 1.6327688627626666e-11 0.0000000000000000e+00  5.9432860161496843e-07 5.0384488325352770e-11 0.0000000000000000e+00  5.9486117289121629e-07 -2.5509133133747239e-10 0.0000000000000000e+00  5.8837097881707881e-07 1.0879108149946741e-08 0.0000000000000000e+00  5.9479577053154241e-07 -1.2055837136918207e-10 0.0000000000000000e+00  3.7946363478153962e-21 -7.6238231829215270e-25 0.0000000000000000e+00  5.9431497249937618e-07 -1.3287555706671843e-11 0.0000000000000000e+00  4.9303759249375858e-21 7.0269626490945294e-23 0.0000000000000000e+00  5.9532678479365209e-07 -4.5363365797982123e-10 0.0000000000000000e+00  2.8444857442325866e-07 2.3165199239427876e-07 0.0000000000000000e+00  -1.3351194632050958e-20 -1.1497569953977471e-05 0.0000000000000000e+00  -2.1757443282074592e-20 1.1497569953977477e-05 0.0000000000000000e+00  2.9476481490582356e-07 -2.9026125710795357e-07 0.0000000000000000e+00  5.9407894776042290e-07 -8.4572879118965190e-10 0.0000000000000000e+00  5.9460418663962362e-07 5.3447777437265217e-10 0.0000000000000000e+00  4.2193646087768357e-21 3.4906531473318046e-23 0.0000000000000000e+00  5.9455303526067829e-07 -1.8338382017205682e-10 0.0000000000000000e+00  4.0333834708087489e-21 2.6104535261350547e-23 0.0000000000000000e+00  5.9466776340373196e-07 -1.8905368721256781e-10 0.0000000000000000e+00  4.5901222718307533e-21 8.7551133726199548e-24 0.0000000000000000e+00  4.0648166769971354e-21 -6.4621048978131600e-25 0.0000000000000000e+00  4.3660557998850269e-21 2.3578928892833384e-23 0.0000000000000000e+00  5.9485977205230268e-07 1.8403488158101906e-10 0.0000000000000000e+00  4.1360661236236708e-21 1.4679204281273412e-23 0.0000000000000000e+00  4.4537079896627997e-21 1.1222403563323137e-23 0.0000000000000000e+00  5.9448515992877791e-07 4.5148301479542724e-11 0.0000000000000000e+00  5.9506395596133510e-07 9.4752117364345449e-11 0.0000000000000000e+00  4.5230273373741779e-21 1.6047592021694584e-24 0.0000000000000000e+00  5.9494996363150434e-07 4.0824175845150855e-10 0.0000000000000000e+00  4.5693253907440807e-21 4.7927460157583636e-23 0.0000000000000000e+00  5.9522519535975771e-07 -7.5552032646094013e-10 0.0000000000000000e+00  3.8508640118356104e-21 1.4308660104953200e-24 0.0000000000000000e+00  5.9397032805209093e-07 4.0015466343837896e-10 0.0000000000000000e+00  4.3664428375210166e-21 -4.5850584231361484e-25 0.0000000000000000e+00  4.0021631637422334e-21 3.7438963857278829e-23 0.0000000000000000e+00  4.4082934642452339e-21 7.2299324531284302e-23 0.0000000000000000e+00  4.5545491628793186e-21 -2.8618841602187937e-23 0.0000000000000000e+00  5.9498723852744318e-07 4.5076466425770394e-10 0.0000000000000000e+00  5.9512625954246604e-07 7.0359905047714697e-10 0.0000000000000000e+00  5.9495272806662651e-07 7.3342932506696995e-11 0.0000000000000000e+00  -1.2575766692892411e-07 -6.5433947188691884e-07 0.0000000000000000e+00  7.8463521560042385e-22 -8.7852948709689602e-21 0.0000000000000000e+00  5.9711531228552986e-07 -5.0828106229858420e-09 0.0000000000000000e+00  5.9581219042048615e-07 -1.6740310673126720e-09 0.0000000000000000e+00  5.8786155313531097e-07 1.3926318298628326e-09 0.0000000000000000e+00  5.9353404232419735e-07 -6.3719786596943131e-10 0.0000000000000000e+00  9.9703021189969161e-08 5.3080947027060067e-07 0.0000000000000000e+00  5.9405252367897112e-07 -1.0822791020497671e-12 0.0000000000000000e+00  5.9531510631820857e-07 -7.0378081989071753e-13 0.0000000000000000e+00  1.6907601942989989e-21 4.8957061992291469e-21 0.0000000000000000e+00  -1.1075473606451490e-07 5.6414409778151136e-07 0.0000000000000000e+00  5.9396986407339382e-07 -4.0698818129849641e-10 0.0000000000000000e+00  9.9402675863192105e-08 -6.1321805493324287e-07 0.0000000000000000e+00  5.9499359364348634e-07 -9.9241327649851373e-11 0.0000000000000000e+00  3.9771844702936751e-21 -3.3417271626413522e-23 0.0000000000000000e+00  5.9383753156964281e-07 -1.8128024863736238e-09 0.0000000000000000e+00  5.9440898373450574e-07 2.2014788389446057e-12 0.0000000000000000e+00  5.9414655383972808e-07 2.7421869322467485e-09 0.0000000000000000e+00  5.9514017198024514e-07 -1.3251657370379195e-10 0.0000000000000000e+00  5.9488343722623474e-07 -7.0264061566143607e-10 0.0000000000000000e+00  5.9402597317166820e-07 -1.0972288208385043e-07 0.0000000000000000e+00  4.5419968027325655e-21 -6.0175193293228747e-23 0.0000000000000000e+00  5.9380181912765217e-07 -2.1236654906782819e-10 0.0000000000000000e+00  5.7231248774350845e-23 -5.4695792003416829e-21 0.0000000000000000e+00  4.6524342380025257e-23 4.8514705910594448e-21 0.0000000000000000e+00  -1.3755525163681986e-06 -1.4988672661216333e-06 0.0000000000000000e+00  -1.1173701498583323e-06 1.2296819231462718e-06 0.0000000000000000e+00  4.0744571726281343e-21 1.1287835695445852e-24 0.0000000000000000e+00  4.6927838151443805e-21 6.6760835113568827e-23 0.0000000000000000e+00  3.9535597620260753e-21 7.9635981360334366e-24 0.0000000000000000e+00  5.9382971078112290e-07 7.2397648570574023e-10 0.0000000000000000e+00  5.9407816804198346e-07 4.3644464791452256e-10 0.0000000000000000e+00  5.4042733518349730e-07 -1.3903265724980680e-22 0.0000000000000000e+00  4.0649820180452294e-21 -1.4645891094427666e-22 0.0000000000000000e+00  5.9406589320170354e-07 1.6633054554657978e-10 0.0000000000000000e+00  4.3006855502892908e-21 2.7844763588138852e-23 0.0000000000000000e+00  3.9344227175886738e-21 -8.4933056197946301e-24 0.0000000000000000e+00  5.9465180324722909e-07 -7.5991186361342800e-11 0.0000000000000000e+00  5.9529721589240003e-07 6.3875249871040670e-11 0.0000000000000000e+00  5.3981005679086953e-07 1.8141304454367217e-22 0.0000000000000000e+00  4.0159945781125774e-21 -5.1309412325694223e-23 0.0000000000000000e+00  2.2122446134624137e-07 -2.2138605726378428e-08 0.0000000000000000e+00  4.4519332928030521e-21 1.3698256285547854e-22 0.0000000000000000e+00  4.9914553529954592e-21 -1.9895059074801119e-22 0.0000000000000000e+00  5.9467725998920762e-07 -2.6628887702763032e-10 0.0000000000000000e+00  5.9258458235115501e-07 -7.3399876641765628e-10 0.0000000000000000e+00  5.9546000963584661e-07 4.0929428343911307e-12 0.0000000000000000e+00  5.9433626113427198e-07 3.7518793311744836e-10 0.0000000000000000e+00  4.3712950377275632e-21 5.0206890210317903e-24 0.0000000000000000e+00  4.7681652708399016e-21 1.2402172663974730e-23 0.0000000000000000e+00  4.1720735962739321e-21 -7.8973187804201578e-23 0.0000000000000000e+00  4.0427024291026655e-21 8.7292738853542247e-23 0.0000000000000000e+00  5.9422643865524091e-07 -9.5505381606004683e-11 0.0000000000000000e+00  5.9430068800405054e-07 2.2435559923657711e-10 0.0000000000000000e+00  5.9416051007016870e-07 -1.9613575382490365e-10 0.0000000000000000e+00  5.3857473051386486e-07 1.6034158398995193e-07 0.0000000000000000e+00  5.9498682361696554e-07 -1.7104574513412766e-10 0.0000000000000000e+00  5.9401510396188849e-07 1.9210615738713412e-10 0.0000000000000000e+00  5.9484059241946520e-07 1.7413781996300914e-10 0.0000000000000000e+00  5.9153279767061699e-07 6.6502453308193958e-10 0.0000000000000000e+00  5.9457006998297448e-07 3.7863997996251799e-11 0.0000000000000000e+00  5.9268873814915093e-07 1.6350665230067242e-10 0.0000000000000000e+00  5.9407729321092323e-07 1.0334397644160974e-10 0.0000000000000000e+00  5.9152602494378087e-07 4.3287607977940827e-11 0.0000000000000000e+00  5.9475590148898971e-07 -5.7085291762833962e-10 0.0000000000000000e+00  5.9298128851085665e-07 3.4765756609344170e-10 0.0000000000000000e+00  5.9243337340161175e-07 -2.1897845004493250e-10 0.0000000000000000e+00  5.9379674225723858e-07 2.4299564548629175e-10 0.0000000000000000e+00  5.9463565175568630e-07 7.4123556836770747e-10 0.0000000000000000e+00  5.9062782682730464e-07 -6.8762462394121251e-10 0.0000000000000000e+00  5.9057707007871789e-07 6.4340088181475554e-10 0.0000000000000000e+00  5.9154584111298819e-07 -9.1933582699717999e-11 0.0000000000000000e+00  5.9032170536133340e-07 -4.3264646893181328e-10 0.0000000000000000e+00  5.9183216720103416e-07 -3.6203759781251651e-10 0.0000000000000000e+00  5.9471915500256431e-07 -1.6188123371665258e-10 0.0000000000000000e+00  5.9506054033072437e-07 -1.0988938640627183e-10 0.0000000000000000e+00  5.9532166510525027e-07 1.3962434434334784e-10 0.0000000000000000e+00  5.9243605676689883e-07 -5.6110666195561074e-10 0.0000000000000000e+00  5.4527292910997245e-07 -3.3608770237034877e-08 0.0000000000000000e+00  6.0913044630039137e-07 -1.8126661491848334e-08 0.0000000000000000e+00  5.9121589190426431e-07 -5.8471520186118324e-09 0.0000000000000000e+00  5.9493371515397812e-07 -1.8144208214229088e-10 0.0000000000000000e+00  5.9525047327686496e-07 -3.9951676539406165e-10 0.0000000000000000e+00  5.9526590243875684e-07 -9.4320556325543265e-11 0.0000000000000000e+00  3.8156075475155367e-22 -1.5167632487018282e-21 0.0000000000000000e+00  5.3062422738007410e-22 1.2623808225272417e-21 0.0000000000000000e+00  5.9494813570564814e-07 2.8644759784812886e-10 0.0000000000000000e+00  5.9481996304107464e-07 -9.5896074216485569e-10 0.0000000000000000e+00  5.9535779492316167e-07 1.1591488028506858e-10 0.0000000000000000e+00  5.9076079092129443e-07 2.6285815277719593e-10 0.0000000000000000e+00  5.9190470895812304e-07 3.1892978796434020e-10 0.0000000000000000e+00  5.9515569497438079e-07 -7.9992761362543763e-09 0.0000000000000000e+00  5.8760946877890210e-07 -3.6930688982956491e-08 0.0000000000000000e+00  5.7976225366780185e-07 6.3464552335792302e-10 0.0000000000000000e+00  5.9108819831043578e-07 5.1578674807206878e-10 0.0000000000000000e+00  5.9123381570735997e-07 -5.0733316296410747e-11 0.0000000000000000e+00  5.6817697980703801e-07 2.3401927458565625e-10 0.0000000000000000e+00  5.9278708541443333e-07 7.7566447005575268e-09 0.0000000000000000e+00  5.9480336603646756e-07 -8.2993569892793782e-11 0.0000000000000000e+00  5.8895392291599914e-07 6.9865129739886807e-10 0.0000000000000000e+00  4.4188516049991028e-09 -7.0098507597474286e-07 0.0000000000000000e+00  5.9490522408275629e-07 3.6756472000045077e-10 0.0000000000000000e+00  6.5242500197126773e-09 6.0594154021696920e-07 0.0000000000000000e+00  -2.4975433815555419e-20 -2.5943371432353758e-20 0.0000000000000000e+00  -4.7512291591746182e-22 3.5173278551501652e-21 0.0000000000000000e+00  2.3212629815039110e-22 4.1529377903187776e-21 0.0000000000000000e+00  2.0713285327775429e-22 -4.0747756737301180e-21 0.0000000000000000e+00  -4.9037593379429992e-22 -4.5465318365034427e-21 0.0000000000000000e+00  -2.6539731133507765e-20 2.2458170332934158e-20 0.0000000000000000e+00  5.9292631310890707e-07 -4.1179992905417818e-10 0.0000000000000000e+00  5.7185978698874029e-07 -4.8025885878151647e-10 0.0000000000000000e+00  5.7196628629473409e-07 -1.3820522671493933e-09 0.0000000000000000e+00  5.7133100767327088e-07 2.0250850259059779e-10 0.0000000000000000e+00  5.7162376108441167e-07 -7.8131863438183215e-11 0.0000000000000000e+00  5.7114155918259702e-07 6.2792526649575598e-10 0.0000000000000000e+00  5.8985993281468633e-07 7.8099601981254955e-10 0.0000000000000000e+00  5.9240618464695225e-07 8.6217655822746518e-09 0.0000000000000000e+00  5.9004865823251750e-07 -1.0338088091159348e-10 0.0000000000000000e+00  5.9416121136625278e-07 -3.4416746027597751e-10 0.0000000000000000e+00  5.9503806038448722e-07 1.6735225776096646e-10 0.0000000000000000e+00  5.9523093483856888e-07 -1.3099476280992596e-10 0.0000000000000000e+00  -1.0874213723295710e-07 8.8045199619846153e-07 0.0000000000000000e+00  -2.2208736899047168e-07 -9.1784742582626148e-07 0.0000000000000000e+00  5.7299796206909182e-07 -1.9503177637024909e-09 0.0000000000000000e+00  5.8884246757272331e-07 7.3608774079017747e-10 0.0000000000000000e+00  5.9529720541455652e-07 -1.1953072953947942e-10 0.0000000000000000e+00  5.9516913319263941e-07 -1.3592634546070297e-10 0.0000000000000000e+00  4.1244851968103637e-21 4.9484115632959801e-23 0.0000000000000000e+00  5.2636816208078034e-07 3.8122956030972596e-08 0.0000000000000000e+00  2.4493951887647497e-06 2.8726669596780543e-06 0.0000000000000000e+00  2.4907530402445717e-06 -3.0664329636483358e-06 0.0000000000000000e+00  5.9551764272173951e-07 -9.5731124972674307e-11 0.0000000000000000e+00  5.6704872176961493e-07 5.7170127203551082e-10 0.0000000000000000e+00  3.9259664128379546e-21 1.0624213362653558e-23 0.0000000000000000e+00  5.6961288435099379e-07 -9.1546316121556029e-10 0.0000000000000000e+00  5.9552314332241530e-07 1.0507387176926365e-10 0.0000000000000000e+00  5.8739509318550929e-07 4.7273507807948169e-08 0.0000000000000000e+00  5.9450060232222155e-07 2.4369318382472889e-11 0.0000000000000000e+00  4.2322824781023013e-21 -4.2112482848474536e-23 0.0000000000000000e+00  5.9520737938300301e-07 2.3899645242428239e-10 0.0000000000000000e+00  5.9497890841082004e-07 -2.6532852577175599e-10 0.0000000000000000e+00  5.9008039733904951e-07 -2.0108910354386606e-10 0.0000000000000000e+00  5.9167709455448472e-07 1.1277846625522097e-10 0.0000000000000000e+00  5.9021393643583776e-07 -4.4812738737264451e-10 0.0000000000000000e+00  4.1196959690264417e-21 3.5727764892950371e-23 0.0000000000000000e+00  5.9202466930643516e-07 -1.7203405260990507e-10 0.0000000000000000e+00  5.9526925050706980e-07 4.7389812636164745e-10 0.0000000000000000e+00  5.7262615568023251e-07 1.3445501265710225e-09 0.0000000000000000e+00  5.9517513915000187e-07 -2.5752831767029988e-11 0.0000000000000000e+00  5.9527026709278513e-07 -2.9654310826391479e-09 0.0000000000000000e+00  5.9473124365513662e-07 8.2128301118970208e-11 0.0000000000000000e+00  5.9480708017777449e-07 -1.3985536034192620e-10 0.0000000000000000e+00  5.7408549031676960e-07 -8.9919812699456938e-09 0.0000000000000000e+00  5.9163338835285240e-07 3.6103143140048694e-10 0.0000000000000000e+00  5.9140161007292697e-07 -5.2914317749794553e-10 0.0000000000000000e+00  5.9081038302596854e-07 -3.8302868852260479e-10 0.0000000000000000e+00  5.9183424592827507e-07 -9.6889844309971140e-10 0.0000000000000000e+00  5.9469193919674551e-07 1.8328852686135381e-10 0.0000000000000000e+00  4.5435198768514329e-21 -5.1648319193637722e-23 0.0000000000000000e+00  5.5079245994790202e-07 -3.1872867076737430e-07 0.0000000000000000e+00  3.2530498805391568e-07 -5.9992188090420866e-07 0.0000000000000000e+00  1.3868794014497914e-07 -4.5099364355862212e-07 0.0000000000000000e+00  4.2560984152505721e-07 -1.5276060172363495e-07 0.0000000000000000e+00  5.9535771094253957e-07 3.1036900361507316e-11 0.0000000000000000e+00  5.9487001512830154e-07 -3.1391521881756283e-10 0.0000000000000000e+00  5.9479644068743522e-07 5.0527870007926636e-11 0.0000000000000000e+00  5.9478309346963009e-07 -1.1380092118451858e-10 0.0000000000000000e+00  5.9399283513747387e-07 -1.2890762833155083e-09 0.0000000000000000e+00  5.9129686339453515e-07 1.3174913122246208e-09 0.0000000000000000e+00  4.5237475659940015e-21 1.1544980767380523e-23 0.0000000000000000e+00  5.9087231198234092e-07 8.2500030791009228e-10 0.0000000000000000e+00  5.9480337852819755e-07 -1.7619425237600931e-10 0.0000000000000000e+00  5.9478620057562594e-07 2.5504105995697810e-12 0.0000000000000000e+00  5.9073504361901049e-07 5.3029447338974458e-10 0.000000