<?xml version="1.0"?>
<VTKFile type="UnstructuredGrid"  version="0.1"  >
<UnstructuredGrid>
<Piece  NumberOfPoints="1079" NumberOfCells="1944">
<Points>
<DataArray  type="Float64"  NumberOfComponents="3"  format="ascii">0.08500000000000001 0.02 0  0.005 0.02 0  0.005 0.03 0  0 0.03 0  0 0 0  0.005 0 0  0.005 0.01 0  0.08500000000000001 0.01 0  0 0.015 0  0 0.0075 0  0 0.0225 0  0.04500000000000001 0.02 0  0.04500000000000001 0.01 0  0.025 0.01 0  0.025 0.02 0  0.065 0.02 0  0.065 0.01 0  0.035 0.02 0  0.035 0.01 0  0.07500000000000001 0.02 0  0.07500000000000001 0.01 0  0.015 0.02 0  0.015 0.01 0  0.05500000000000001 0.01 0  0.05500000000000001 0.02 0  0.07000000000000001 0.01 0  0.07000000000000001 0.02 0  0.05 0.01 0  0.03 0.01 0  0.03 0.02 0  0.04000000000000001 0.01 0  0.01 0.01 0  0.02 0.02 0  0.06 0.015 0  0.08500000000000001 0.015 0  0.05 0.02 0  0.07250000000000001 0.015 0  0.04000000000000001 0.02 0  0.03750000000000001 0.015 0  0.0525 0.015 0  0.02 0.01 0  0.01 0.02 0  0.0275 0.015 0  0.0125 0.015 0  0.08000000000000002 0.01 0  0.08000000000000002 0.02 0  0.0325 0.014375 0  0.04291666666666667 0.015 0  0.065 0.015 0  0.005 0.005 0  0.005 0.015 0  0.02208333333333334 0.015 0  0.07791666666666668 0.015 0  0.005 0.025 0  0.06 0.01 0  0.06 0.02 0  0.01729166666666667 0.01572916666666667 0  0.04770833333333334 0.01427083333333334 0  0.06875000000000001 0.01625 0  0.008750000000000001 0.01625 0  0.05625000000000001 0.01625 0  0 0.00375 0  0 0.01875 0  0 0.01125 0  0 0.02625 0  0.08145833333333334 0.01354166666666667 0  0.0675 0.01 0  0.0075 0.0125 0  0.0625 0.0175 0  0.0575 0.0125 0  0.0625 0.0125 0  0.08207465277777778 0.01707465277777778 0  0.06767857142857144 0.01321428571428571 0  0.0175 0.01 0  0.01875 0.01291382575757576 0  0.0475 0.02 0  0.04564168086314595 0.01679860519591141 0  0.00296875 0.0125 0  0.0025 0.03 0  0.0025 0 0  0.00296875 0.0175 0  0.01521990740740741 0.0132349537037037 0  0.0497800925925926 0.0167650462962963 0  0.0325 0.02 0  0.03474264705882353 0.01674632352941176 0  0.03750000000000001 0.02 0  0.03025735294117647 0.01674632352941176 0  0.0275 0.02 0  0.0525 0.02 0  0.0125 0.01 0  0.04020833333333334 0.01322916666666667 0  0.03750000000000001 0.01 0  0.0225 0.02 0  0.02479166666666667 0.01677083333333333 0  0.07520833333333335 0.01322916666666667 0  0.07250000000000001 0.01 0  0.07520833333333335 0.01677083333333334 0  0.07250000000000001 0.02 0  0.04020833333333334 0.01677083333333333 0  0.0225 0.01 0  0.02375 0.01262152777777778 0  0.04250000000000001 0.02 0  0.04250000000000001 0.01 0  0.07750000000000001 0.01 0  0.07750000000000001 0.02 0  0.05036151960784314 0.01294424019607843 0  0.0705560064935065 0.01284699675324675 0  0.05458333333333334 0.01291666666666666 0  0.0021875 0.024375 0  0.005 0.0275 0  0.01125 0.0175 0  0.01463848039215686 0.01705575980392157 0  0.01 0.01375 0  0.03625 0.0125 0  0.0021875 0.009375 0  0.05375000000000001 0.0175 0  0.07125000000000001 0.0175 0  0.005 0.0025 0  0.0021875 0.005625 0  0.02655220103578155 0.01234889948210923 0  0.002187499999999999 0.020625 0  0.02979166666666667 0.01302083333333333 0  0.0525 0.01 0  0.07895833333333334 0.0125 0  0.01994277885235332 0.01704213007736944 0  0.07934656179076068 0.01733823814273861 0  0.04505722114764669 0.01295786992263056 0  0.06625 0.0175 0  0.006250000000000001 0.0175 0  0.05750000000000001 0.02 0  0.05875000000000001 0.0175 0  0.005 0.0225 0  0.005 0.0075 0  0.002375 0.027375 0  0.002375 0.002625000000000001 0  0.0475 0.01 0  0.0175 0.02 0  0.0325 0.01 0  0.03375 0.0121875 0  0.04261299435028249 0.01749205508474576 0  0.08500000000000001 0.0125 0  0.08250000000000002 0.01 0  0.02121963399965531 0.01224824108143494 0  0.0675 0.02 0  0.0125 0.02 0  0.02720152243589744 0.0175 0  0.03715165441176471 0.0175 0  0.08500000000000001 0.0175 0  0.0275 0.01 0  0.0025 0.0149560546875 0  0.0075 0.01 0  0.0075 0.02 0  0.06526785714285716 0.0125 0  0.01281031447005516 0.0125 0  0.0625 0.015 0  0.06 0.0125 0  0.05750000000000001 0.01 0  0.0625 0.02 0  0.0625 0.01 0  0.08250000000000002 0.02 0  0.04260103740101855 0.01252623201412851 0  0.02240052247582197 0.01750164767101344 0  0.07293583459427785 0.01238479732953041 0  0.005234374999999999 0.012265625 0  0.03528131980640358 0.01454684009679821 0  0.0325 0.01760027210036557 0  0.02532593822924343 0.01428227733767297 0  0.08009952069819683 0.01527145502895417 0  0.01987282359856536 0.01482587683689801 0  0.04828232595121382 0.01210233572595705 0  0.01671767404878618 0.01789766427404295 0  0.05125 0.01829007549029352 0  0.05247215456215357 0.01288882122882024 0  0.07338729919678716 0.01799385040160642 0  0.03838729919678716 0.01200614959839357 0  0.07717482110586968 0.01780301674207099 0  0.04771860040890012 0.01773306039388322 0  0.03125 0.01160380747126437 0  0.06875000000000001 0.01154265873015873 0  0.07625000000000001 0.01154065860215054 0  0.01625 0.01153997817696946 0  0.068125 0.018125 0  0.05437500000000001 0.015625 0  0.066875 0.015625 0  0.07039794950204951 0.01494384850614853 0  0.05687500000000001 0.018125 0  0.006875 0.015625 0  0.008749999999999999 0.01833333333333333 0  0.010625 0.015625 0  0.05625 0.01416666666666667 0  0.05812500000000001 0.015625 0  0.0449088595298192 0.01494528408816316 0  0 0.016875 0  0 0.013125 0  0.04962452342047931 0.01478673066448802 0  0.0153754765795207 0.01521326933551198 0  0.0771774565913315 0.01322498191305479 0  0.01857756431135545 0.01840228599899994 0  0.04642243568864456 0.01159771400100006 0  0.08125000000000002 0.01155637254901961 0  0.08317650804863432 0.0118234919513657 0  0.08288217288011697 0.01511353252923977 0  0.02837253504384828 0.0117177464035174 0  0.03896057962520807 0.01831163685754031 0  0.01125 0.0114244162490927 0  0.00935910490099115 0.0119067901980177 0  0.02946078431372549 0.01495404411764706 0  0.02875 0.0185829434466942 0  0.002968749999999999 0.0225 0  0.064375 0.016875 0  0.00296875 0.0075 0  0 0.001875 0  0 0.005625 0  0 0.009375 0  0 0.020625 0  0 0.024375 0  0 0.028125 0  0.06062500000000001 0.01812500000000001 0  0.008303571428571429 0.01446428571428572 0  0.01375 0.01865917058160413 0  0.05137790313978056 0.01143372888932909 0  0.04125000000000001 0.01131513063942604 0  0.04101690263896279 0.01844430285842771 0  0.02399563533148224 0.01844349395710867 0  0.08125000000000002 0.01868815426145731 0  0.05354684380692146 0.01145463537600848 0  0.01699195823639423 0.01315138909884649 0  0.07598357371794873 0.015 0  0.04098357371794872 0.015 0  0.003744047619047619 0.00375 0  0.003344630281690141 0.02580853873239437 0  0.04625 0.0187354532243972 0  0.06388392857142858 0.01138392857142858 0  0.06375 0.01375 0  0.05875 0.01375 0  0.06375 0.02 0  0.00622802734375 0.01372802734375 0  0.003630681818181818 0.001369318181818182 0  0.003630681818181818 0.02863068181818182 0  0.06125 0.01625 0  0.06125 0.01125 0  0.05625000000000001 0.01 0  0.05875 0.01125 0  0.06125 0.01375 0  0.08337864763241221 0.0183786476324122 0  0.05213634138653413 0.01674432930673294 0  0.04375000000000001 0.01 0  0.07424178685897437 0.01529258578431373 0  0.03924178685897436 0.01529258578431372 0  0.03410139294454583 0.01843406022904556 0  0.03089860705545417 0.01843406022904556 0  0.02094160484316717 0.01850229584291991 0  0.04375000000000001 0.02 0  0.04437042160883325 0.01820701498672512 0  0.04816311705429156 0.01600061344661149 0  0.07151224904251052 0.0114127410511319 0  0.04395528506193162 0.01639387970349481 0  0.0128750358694518 0.0167500179347259 0  0.02855808448399799 0.01642839899839741 0  0.02812690373330794 0.01340955081400569 0  0.08358500641945087 0.01351822349116885 0  0.05590277777777778 0.01173611111111111 0  0.06683110430364615 0.01164926404662283 0  0.02573206694914602 0.01842532451809762 0  0.01438126661842046 0.01166701193099454 0  0.02384283211216029 0.01526549696571563 0  0.03625 0.02 0  0.004609375000000001 0.0182421875 0  0.003398437500000001 0.01943359375 0  0.001728307845744682 0.01894718251329787 0  0.004377805359085963 0.01656966216675735 0  0.04649673309852075 0.0153889662370871 0  0.03615513600614297 0.01592654988586041 0  0.03316985071935832 0.01598763605018279 0  0.03110111603888768 0.01529816275177977 0  0.01370614113484869 0.0138804542047638 0  0.04930041102671841 0.01842260568883502 0  0.07875000000000001 0.02 0  0.0745395359848485 0.01165101111925709 0  0.03860755698543604 0.01373741558556884 0  0.02605038706571737 0.01573944002207753 0  0.07559826163500957 0.01841729376139847 0  0.04437500000000001 0.01149157931286774 0  0.06874116707361365 0.01454618473032123 0  0.003761917372881356 0.0239307468220339 0  0.003984374999999999 0.01125 0  0.003768503289473684 0.01392539576480263 0  0.001796875 0.0111328125 0  0.003761917372881356 0.008930746822033899 0  0.005 0.00625 0  0.003761917372881355 0.0210692531779661 0  0.06633928571428571 0.01410714285714285 0  0.006484375 0.01125 0  0.08364120589325512 0.01657288979763549 0  0.03576267476503373 0.0184116442851204 0  0.07370875846579374 0.0137848203678562 0  0.06964285714285715 0.01758928571428571 0  0.05520833333333334 0.01833333333333333 0  0.06491071428571429 0.01839285714285714 0  0.0510098951944636 0.01559941474766356 0  0.01786087179886325 0.0115702210443714 0  0.01972197383235524 0.01160576093166696 0  0.01804697593127788 0.01433503795474974 0  0.001644074528704677 0.01642892723865279 0  0.00125 0.03 0  0.001497685185185185 0.001267746913580247 0  0.07315451164202422 0.01643443118912983 0  0.001233906745910645 0.0140625 0  0.01162635071030191 0.01362229857939618 0  0.01528023503083844 0.01845923557506155 0  0.06625 0.02 0  0.07695012019230771 0.01624387078484555 0  0.03139091092855769 0.01320776147621796 0  0.03857339107781042 0.01675295051810485 0  0.001754993120977522 0.02590789105493891 0  0.002288757784711197 0.00412546923654445 0  0.07914382119690884 0.01404430049871201 0  0.001391810103286306 0.01257390899021902 0  0.0419501201923077 0.01614675005432421 0  0.001484375 0.007018229166666667 0  0.001484375 0.02201822916666666 0  0.048
[...]
<PointData  Vectors="velocity"> 
<DataArray  type="Float64"  Name="velocity"  NumberOfComponents="3" format="ascii">2.1991793955629918e-06 1.6908015723842098e-20 0.0000000000000000e+00  4.5376054498138209e-20 -5.3072978929775069e-20 0.0000000000000000e+00  1.9542141971565333e-18 -1.0722672220103302e-04 0.0000000000000000e+00  -2.3161057151484848e-18 -1.0722672220103283e-04 0.0000000000000000e+00  -2.1093105620102294e-18 1.0722672220103290e-04 0.0000000000000000e+00  2.0472720160687527e-18 1.0722672220103279e-04 0.0000000000000000e+00  4.3381153937387751e-20 4.1582272223389185e-20 0.0000000000000000e+00  2.2585966174308160e-06 -1.6653862997008036e-20 0.0000000000000000e+00  5.0510484668015301e-21 -4.1039768792762427e-22 0.0000000000000000e+00  -5.7519754034929384e-22 4.0690961466513033e-20 0.0000000000000000e+00  2.4095832237580552e-22 -4.6515576310651165e-20 0.0000000000000000e+00  4.0498617023545635e-20 -1.5498614856190388e-22 0.0000000000000000e+00  3.7532319214549211e-20 2.1873515846549057e-22 0.0000000000000000e+00  4.1053752816597362e-20 1.2472928373098157e-22 0.0000000000000000e+00  3.4769831068890962e-20 -1.4698442989667578e-22 0.0000000000000000e+00  3.8688334724116291e-20 1.1170205338144988e-22 0.0000000000000000e+00  3.9555989736243275e-20 6.0577270061076847e-23 0.0000000000000000e+00  3.3733836319481773e-20 -7.5773581063661614e-23 0.0000000000000000e+00  4.6119865916790422e-20 -6.3149019458303176e-23 0.0000000000000000e+00  4.1255110135395312e-20 2.5445446831084659e-22 0.0000000000000000e+00  3.7325084613823233e-20 1.4678625441986016e-22 0.0000000000000000e+00  3.4334501104424381e-20 -8.9261728219642146e-23 0.0000000000000000e+00  3.3876727023874512e-20 -8.1327781088525481e-23 0.0000000000000000e+00  4.1587784127425863e-20 -4.7564557622503372e-22 0.0000000000000000e+00  3.6786440825859695e-20 1.6954063523671116e-22 0.0000000000000000e+00  3.8158268602462867e-20 6.2342703574603658e-23 0.0000000000000000e+00  4.4341051488660797e-20 -1.5885089815273691e-22 0.0000000000000000e+00  4.0482276304295311e-20 1.2664192986235044e-22 0.0000000000000000e+00  4.1584505655251046e-20 1.7973470117826082e-23 0.0000000000000000e+00  3.3127407638666765e-20 -8.6009301082411783e-23 0.0000000000000000e+00  3.9773776517257197e-20 1.3086285586397834e-22 0.0000000000000000e+00  3.9328486528600143e-20 2.3823987031748163e-22 0.0000000000000000e+00  3.6455087057460188e-20 -7.4157354298829978e-23 0.0000000000000000e+00  5.6100744344189248e-06 -8.2005548098416790e-10 0.0000000000000000e+00  5.3880349711876464e-06 1.1092800659417549e-23 0.0000000000000000e+00  3.5161744870872116e-20 2.1977126357556407e-23 0.0000000000000000e+00  5.6099710208875245e-06 1.8912803100165635e-09 0.0000000000000000e+00  4.1733374544037017e-20 -3.8336301334844133e-22 0.0000000000000000e+00  5.6053011827509682e-06 -2.7285769102563931e-09 0.0000000000000000e+00  5.6042307058471367e-06 -3.0531052183843305e-10 0.0000000000000000e+00  3.7044966938224476e-20 1.6338434947629349e-23 0.0000000000000000e+00  4.1142800923753643e-20 -7.9776138839356641e-22 0.0000000000000000e+00  5.6049536316993948e-06 -1.4572279245499253e-10 0.0000000000000000e+00  5.5932636958795628e-06 -2.1712620390203874e-08 0.0000000000000000e+00  3.5005667752604395e-20 -1.4626082501459016e-22 0.0000000000000000e+00  3.7787950847374012e-20 7.1426063590038225e-22 0.0000000000000000e+00  5.6036562574997209e-06 1.6436450264105840e-10 0.0000000000000000e+00  5.6093369810433613e-06 -5.4692635729990568e-10 0.0000000000000000e+00  5.6078241665337346e-06 -4.7191678469310204e-10 0.0000000000000000e+00  -2.8239024597671355e-21 4.9959437349889054e-20 0.0000000000000000e+00  4.2376753487938054e-06 -2.2096675695633790e-07 0.0000000000000000e+00  5.6027768666282762e-06 1.3708701709819165e-09 0.0000000000000000e+00  5.6013153286167837e-06 2.8836225234470721e-10 0.0000000000000000e+00  -4.4060895761928896e-21 -5.9092767749582834e-20 0.0000000000000000e+00  3.5866034372416765e-20 6.4055505503946746e-23 0.0000000000000000e+00  4.0590332533712430e-20 5.0164188462380739e-22 0.0000000000000000e+00  5.6054178952019453e-06 -1.9855514410921603e-09 0.0000000000000000e+00  5.6072058287151320e-06 1.4828439346865414e-09 0.0000000000000000e+00  5.6078664376987169e-06 -1.4306699769623696e-09 0.0000000000000000e+00  5.5216140784477791e-06 -1.7825843625785872e-07 0.0000000000000000e+00  5.6038789833782150e-06 -4.2158970839053150e-09 0.0000000000000000e+00  -2.4729720395751973e-20 8.0185221196756052e-21 0.0000000000000000e+00  2.3751427205175789e-21 -2.1290435952591308e-20 0.0000000000000000e+00  3.2217699506713456e-21 2.4838226435343335e-20 0.0000000000000000e+00  -2.8458760325491215e-20 6.7929201781951388e-21 0.0000000000000000e+00  5.5498256310417665e-06 -5.3616415357098005e-08 0.0000000000000000e+00  3.4478330094803888e-20 -1.0087712061933026e-22 0.0000000000000000e+00  5.5271916488575476e-06 3.1848460139999738e-07 0.0000000000000000e+00  5.5974202650426025e-06 1.5749643849039320e-10 0.0000000000000000e+00  5.5999247053647753e-06 4.7327222328932147e-10 0.0000000000000000e+00  5.6049416704876378e-06 -2.4055987317404020e-09 0.0000000000000000e+00  5.5437759362520111e-06 1.0252007106027111e-07 0.0000000000000000e+00  5.6043244072221903e-06 -1.1357348783895496e-09 0.0000000000000000e+00  3.5930363404400124e-20 -8.0108751411884563e-24 0.0000000000000000e+00  5.5998204247674556e-06 -9.3905735911160941e-11 0.0000000000000000e+00  4.6016841966084130e-20 6.6059333681780928e-22 0.0000000000000000e+00  5.6093285221072815e-06 -4.2734569167837747e-09 0.0000000000000000e+00  2.6812455523811478e-06 2.1874123806234828e-06 0.0000000000000000e+00  -1.2517800843618839e-19 -1.0722672220103332e-04 0.0000000000000000e+00  -2.0927717194383212e-19 1.0722672220103343e-04 0.0000000000000000e+00  2.7764185560264899e-06 -2.7302793861497447e-06 0.0000000000000000e+00  5.5976471917885997e-06 -7.8568481356313641e-09 0.0000000000000000e+00  5.6025185024681065e-06 5.0354594788863077e-09 0.0000000000000000e+00  3.7531049540561628e-20 3.3251403318260073e-22 0.0000000000000000e+00  5.6020374064813555e-06 -1.7283514204576309e-09 0.0000000000000000e+00  4.1339173558669578e-20 2.5558765282880657e-22 0.0000000000000000e+00  5.6031185432199819e-06 -1.7806467492448869e-09 0.0000000000000000e+00  4.4067175533461080e-20 8.4372729236714442e-23 0.0000000000000000e+00  4.0237979425251707e-20 -6.0850735022809932e-24 0.0000000000000000e+00  4.1174711768573267e-20 2.2549096875604897e-22 0.0000000000000000e+00  5.6049275346979311e-06 1.7341949577027060e-09 0.0000000000000000e+00  3.6623414572348965e-20 1.2636002826088895e-22 0.0000000000000000e+00  4.1379926601307478e-20 1.1025129071864510e-22 0.0000000000000000e+00  5.6013950961160921e-06 4.2952425885379933e-10 0.0000000000000000e+00  5.6068511411914991e-06 8.9326147573636055e-10 0.0000000000000000e+00  4.0057038571058554e-20 2.4524647123754606e-23 0.0000000000000000e+00  5.6057780748093879e-06 3.8463769905839661e-09 0.0000000000000000e+00  4.3842110074201012e-20 4.5299334226709163e-22 0.0000000000000000e+00  5.6083705522268493e-06 -7.1194839556404870e-09 0.0000000000000000e+00  3.6667739273673710e-20 1.1153417107450699e-23 0.0000000000000000e+00  5.5965541986360955e-06 3.7745330080563933e-09 0.0000000000000000e+00  4.2068094434611083e-20 0.0000000000000000e+00 0.0000000000000000e+00  3.9279965892902281e-20 3.5795657539491670e-22 0.0000000000000000e+00  4.0443757952357093e-20 6.7781296295034009e-22 0.0000000000000000e+00  4.3588252151133083e-20 -2.7126942422637055e-22 0.0000000000000000e+00  5.6061277650540968e-06 4.2465074086927501e-09 0.0000000000000000e+00  5.6074388556985505e-06 6.6292877520063928e-09 0.0000000000000000e+00  5.6058031908337071e-06 6.9200146737894849e-10 0.0000000000000000e+00  -1.1737414909097558e-06 -6.1610679783340841e-06 0.0000000000000000e+00  7.9961573145382792e-21 -8.6313966753165037e-20 0.0000000000000000e+00  5.6257980170106331e-06 -4.7537983244210911e-08 0.0000000000000000e+00  5.6137991623515243e-06 -1.5647891218370676e-08 0.0000000000000000e+00  5.5393086585346441e-06 1.3806589408905305e-08 0.0000000000000000e+00  5.5924414215435980e-06 -6.0055130743544790e-09 0.0000000000000000e+00  9.4061080458562848e-07 5.0080423404340163e-06 0.0000000000000000e+00  5.5973195376881895e-06 -9.8273362176854432e-12 0.0000000000000000e+00  5.6092175316871298e-06 -2.6260908859103356e-12 0.0000000000000000e+00  1.5480493910606000e-20 4.5977066914499819e-20 0.0000000000000000e+00  -1.0353404865936568e-06 5.3241810613606137e-06 0.0000000000000000e+00  5.5965424391490033e-06 -3.8363933276854208e-09 0.0000000000000000e+00  9.3678422400564846e-07 -5.7715417429642756e-06 0.0000000000000000e+00  5.6061891141434847e-06 -9.3214631153514220e-10 0.0000000000000000e+00  3.4871791835031239e-20 -3.0668398217857234e-22 0.0000000000000000e+00  5.5953058801851586e-06 -1.7089862433215850e-08 0.0000000000000000e+00  5.6006634759268567e-06 4.1624598660804405e-11 0.0000000000000000e+00  5.5982067320438292e-06 2.5842959696634037e-08 0.0000000000000000e+00  5.6075695450235131e-06 -1.2477226638189531e-09 0.0000000000000000e+00  5.6051495502264147e-06 -6.6213607290173861e-09 0.0000000000000000e+00  5.5954874832863146e-06 -1.0317447693689352e-06 0.0000000000000000e+00  4.2871307136462481e-20 -5.6654728632655899e-22 0.0000000000000000e+00  5.5949548572986323e-06 -1.9952036268525634e-09 0.0000000000000000e+00  4.7300117911542086e-22 -5.0180737705073832e-20 0.0000000000000000e+00  4.0529417642530960e-22 4.4832497060268537e-20 0.0000000000000000e+00  -1.2839648950088101e-05 -1.4086529800231874e-05 0.0000000000000000e+00  -1.0444015884196089e-05 1.1572656512676293e-05 0.0000000000000000e+00  3.9646491069828375e-20 1.0159052125901266e-23 0.0000000000000000e+00  4.3900989155758526e-20 6.3988212923708743e-22 0.0000000000000000e+00  3.5805022706128308e-20 5.9853049188980968e-23 0.0000000000000000e+00  5.5952203822893243e-06 6.8204682115705217e-09 0.0000000000000000e+00  5.5975601797942857e-06 4.1154782030922131e-09 0.0000000000000000e+00  5.0920404182155313e-06 -1.3535434183953871e-21 0.0000000000000000e+00  3.9023827373234205e-20 -1.3410455383060978e-21 0.0000000000000000e+00  5.5974605263025690e-06 1.5774386328624380e-09 0.0000000000000000e+00  3.8593070936548740e-20 2.9472632366320695e-22 0.0000000000000000e+00  3.8653977576309779e-20 -7.4417534954391042e-23 0.0000000000000000e+00  5.6029653175450867e-06 -7.1365590610703634e-10 0.0000000000000000e+00  5.6090506418606475e-06 6.0018742290533310e-10 0.0000000000000000e+00  5.0862257138939189e-06 1.7789552052020420e-21 0.0000000000000000e+00  4.1464832347237389e-20 -4.9122534746649496e-22 0.0000000000000000e+00  2.0844679089699156e-06 -2.0427594954770172e-07 0.0000000000000000e+00  4.0766010705790408e-20 1.3424291159836895e-21 0.0000000000000000e+00  4.9111835051422339e-20 -1.8732774838946070e-21 0.0000000000000000e+00  5.6032074944971815e-06 -2.5103022402804386e-09 0.0000000000000000e+00  5.5837084179903483e-06 -6.7218546746248101e-09 0.0000000000000000e+00  5.6105830081115859e-06 3.8460727557666378e-11 0.0000000000000000e+00  5.5999963783968620e-06 3.5324942280399464e-09 0.0000000000000000e+00  4.1418457592758795e-20 4.3160137954025584e-23 0.0000000000000000e+00  4.9332171455997446e-20 1.2133533544899466e-22 0.0000000000000000e+00  3.8665384421142564e-20 -7.5239148433874778e-22 0.0000000000000000e+00  3.5250878078983031e-20 8.6434587021802490e-22 0.0000000000000000e+00  5.5989547799223126e-06 -9.0192587547906065e-10 0.0000000000000000e+00  5.5996504743918057e-06 2.1236410322974984e-09 0.0000000000000000e+00  5.5983358061619365e-06 -1.8506611054088135e-09 0.0000000000000000e+00  5.0767071383607237e-06 1.5137631416223893e-06 0.0000000000000000e+00  5.6061249091163493e-06 -1.6117022898831465e-09 0.0000000000000000e+00  5.5969715743623475e-06 1.8126307713057841e-09 0.0000000000000000e+00  5.6047481876015606e-06 1.6449636818088915e-09 0.0000000000000000e+00  5.5735728750859157e-06 6.2667402874924004e-09 0.0000000000000000e+00  5.6021988096495512e-06 3.8517146893449310e-10 0.0000000000000000e+00  5.5844736513812147e-06 1.5392788715469330e-09 0.0000000000000000e+00  5.5974890704810399e-06 1.0249388336384016e-09 0.0000000000000000e+00  5.5735184386961690e-06 4.0914151607853218e-10 0.0000000000000000e+00  5.6039494001606088e-06 -5.3784903447829721e-09 0.0000000000000000e+00  5.5872305237855616e-06 3.2802340597324536e-09 0.0000000000000000e+00  5.5820674207022406e-06 -2.0643414685263567e-09 0.0000000000000000e+00  5.5949140314730893e-06 2.2935702794980672e-09 0.0000000000000000e+00  5.6028173086335303e-06 6.9884942735538950e-09 0.0000000000000000e+00  5.5650552630518447e-06 -6.4789126975802435e-09 0.0000000000000000e+00  5.5645721533220057e-06 6.0606603996655193e-09 0.0000000000000000e+00  5.5737012957845768e-06 -8.6364923886310450e-10 0.0000000000000000e+00  5.5622550928548538e-06 -4.0395137686789068e-09 0.0000000000000000e+00  5.5764031443163694e-06 -3.4086618032028684e-09 0.0000000000000000e+00  5.6036029059750932e-06 -1.5256068354012977e-09 0.0000000000000000e+00  5.6068194941784826e-06 -1.0355905191950339e-09 0.0000000000000000e+00  5.6092798480309942e-06 1.3158143579043075e-09 0.0000000000000000e+00  5.5820863271493052e-06 -5.2878338189036751e-09 0.0000000000000000e+00  5.1374005711176840e-06 -3.1468661311579620e-07 0.0000000000000000e+00  5.7383350688123922e-06 -1.7021897355932630e-07 0.0000000000000000e+00  5.5704801993106579e-06 -5.4481796044027527e-08 0.0000000000000000e+00  5.6056246439205688e-06 -1.7097558931072004e-09 0.0000000000000000e+00  5.6086093656642364e-06 -3.7643347098992151e-09 0.0000000000000000e+00  5.6087544056170754e-06 -8.8850569896617565e-10 0.0000000000000000e+00  3.7160699593194791e-21 -1.4030060050491912e-20 0.0000000000000000e+00  5.2773692840642106e-21 1.1573993270049177e-20 0.0000000000000000e+00  5.6057599057096005e-06 2.6988575636772966e-09 0.0000000000000000e+00  5.6045437740451181e-06 -8.9102348679632077e-09 0.0000000000000000e+00  5.6096189038463004e-06 1.0907886876070422e-09 0.0000000000000000e+00  5.5662644381658841e-06 2.4941580821073486e-09 0.0000000000000000e+00  5.5770861540260699e-06 3.0014853406878913e-09 0.0000000000000000e+00  5.6077149548738876e-06 -7.5384903923627015e-08 0.0000000000000000e+00  5.5365847083005168e-06 -3.4798918756143810e-07 0.0000000000000000e+00  5.4626465716731257e-06 5.9813591457644211e-09 0.0000000000000000e+00  5.5693970494577063e-06 4.8595575739266026e-09 0.0000000000000000e+00  5.5707642938165483e-06 -4.8063149175152315e-10 0.0000000000000000e+00  5.3539634505535327e-06 2.3648667738197197e-09 0.0000000000000000e+00  5.5862218287276080e-06 7.3556864495866704e-08 0.0000000000000000e+00  5.6043961577083063e-06 -7.8073259443536510e-10 0.0000000000000000e+00  5.5492823892758735e-06 6.5848888035411437e-09 0.0000000000000000e+00  4.4287453855035523e-08 -6.5968920540485075e-06 0.0000000000000000e+00  5.6053548700893862e-06 3.4639619595542110e-09 0.0000000000000000e+00  6.3689529368686332e-08 5.7156783947868787e-06 0.0000000000000000e+00  -2.3066956872285798e-19 -2.3481101911279951e-19 0.0000000000000000e+00  -4.7086808383461888e-21 3.3130959151737041e-20 0.0000000000000000e+00  2.2651752572236887e-21 3.8132663386030376e-20 0.0000000000000000e+00  2.0346678507814800e-21 -3.9158338782375108e-20 0.0000000000000000e+00  -4.6764327461178266e-21 -4.1152608165836875e-20 0.0000000000000000e+00  -2.5653459447693205e-19 1.9780519273325593e-19 0.0000000000000000e+00  5.5867105535855224e-06 -3.8796852117018673e-09 0.0000000000000000e+00  5.3884589374024429e-06 -3.2556941189307757e-09 0.0000000000000000e+00  5.3890138265213729e-06 -1.2932682349676423e-08 0.0000000000000000e+00  5.3832365599208617e-06 1.8873706454613870e-09 0.0000000000000000e+00  5.3859934337961364e-06 -7.4399228144412868e-10 0.0000000000000000e+00  5.3814393891138958e-06 5.9366459336821164e-09 0.0000000000000000e+00  5.5578073103249591e-06 7.3617013579500733e-09 0.0000000000000000e+00  5.5818158965142156e-06 8.1242714942749341e-08 0.0000000000000000e+00  5.5595942092952780e-06 -9.6720855357708876e-10 0.0000000000000000e+00  5.5983878274415477e-06 -3.1814747763184271e-09 0.0000000000000000e+00  5.6066069075031312e-06 1.5766127067662020e-09 0.0000000000000000e+00  5.6084251352101512e-06 -1.2342254873793296e-09 0.0000000000000000e+00  -1.0118211121750001e-06 8.2796860174657276e-06 0.0000000000000000e+00  -2.0679328763446708e-06 -8.6217468130037916e-06 0.0000000000000000e+00  5.3989123942350203e-06 -1.8377185737045917e-08 0.0000000000000000e+00  5.5482272700328824e-06 6.9399488016820236e-09 0.0000000000000000e+00  5.6090490232683608e-06 -1.1262719084481903e-09 0.0000000000000000e+00  5.6078431042248758e-06 -1.2804125185640142e-09 0.0000000000000000e+00  4.0340882934202842e-20 4.6093695225828425e-22 0.0000000000000000e+00  4.9604046115774409e-06 3.6149166701379388e-07 0.0000000000000000e+00  2.3033604748030547e-05 2.6942629648044411e-05 0.0000000000000000e+00  2.3381099873263585e-05 -2.8731407348309709e-05 0.0000000000000000e+00  5.6111258952313272e-06 -9.0150755008624264e-10 0.0000000000000000e+00  5.3428551970927570e-06 5.3813084995869575e-09 0.0000000000000000e+00  3.9095735756955435e-20 1.1164369916882576e-22 0.0000000000000000e+00  5.3670472983643231e-06 -8.6383833228119827e-09 0.0000000000000000e+00  5.6111783973622269e-06 9.8988683855593494e-10 0.0000000000000000e+00  5.5346011864691972e-06 4.4541509725430399e-07 0.0000000000000000e+00  5.6015433417230706e-06 2.2929238968171588e-10 0.0000000000000000e+00  4.0147126215363037e-20 -3.9695686743756876e-22 0.0000000000000000e+00  5.6082026011967221e-06 2.2518296296800650e-09 0.0000000000000000e+00  5.6060503673524212e-06 -2.4999010140121446e-09 0.0000000000000000e+00  5.5598944457491185e-06 -1.8973499675671766e-09 0.0000000000000000e+00  5.5749391876914658e-06 1.0632227803132710e-09 0.0000000000000000e+00  5.5611346764003586e-06 -4.2120177992709849e-09 0.0000000000000000e+00  4.0383649534292122e-20 3.3206240654177094e-22 0.0000000000000000e+00  5.5782114127182997e-06 -1.6232389216388415e-09 0.0000000000000000e+00  5.6087855211529960e-06 4.4654940538866753e-09 0.0000000000000000e+00  5.3954393789306499e-06 1.2654518178651598e-08 0.0000000000000000e+00  5.6078993118693809e-06 -2.4242955463964207e-10 0.0000000000000000e+00  5.6086350886929841e-06 -2.7692944594420638e-08 0.0000000000000000e+00  5.6037159983098709e-06 7.7533713273038224e-10 0.0000000000000000e+00  5.6044317773837352e-06 -1.3166590650582351e-09 0.0000000000000000e+00  5.4091589129229625e-06 -8.4751826559782430e-08 0.0000000000000000e+00  5.5745306317114734e-06 3.3985823320227113e-09 0.0000000000000000e+00  5.5723415317613505e-06 -4.9895423580047203e-09 0.0000000000000000e+00  5.5667724374085092e-06 -3.6037193061676979e-09 0.0000000000000000e+00  5.5765669045260425e-06 -9.0482337661664446e-09 0.0000000000000000e+00  5.6033457659691117e-06 1.7343475590106651e-09 0.0000000000000000e+00  4.1630409461568241e-20 -4.8234039699848171e-22 0.0000000000000000e+00  5.1873565974971004e-06 -2.9992662388552868e-06 0.0000000000000000e+00  3.0634314421916515e-06 -5.6462000304603748e-06 0.0000000000000000e+00  1.3063091824474002e-06 -4.2438639271782880e-06 0.0000000000000000e+00  4.0093200303160254e-06 -1.4357808385285026e-06 0.0000000000000000e+00  5.6096193837470544e-06 2.9279606626060382e-10 0.0000000000000000e+00  5.6050243538323795e-06 -2.9578593210657592e-09 0.0000000000000000e+00  5.6043308782651309e-06 4.7636010631692422e-10 0.0000000000000000e+00  5.6042052035371163e-06 -1.0714098757282145e-09 0.0000000000000000e+00  5.5968413085213613e-06 -1.1941413357289939e-08 0.0000000000000000e+00  5.5713503263960541e-06 1.2411624015813341e-08 0.0000000000000000e+00  4.4393042780954468e-20 7.0997704855183635e-23 0.0000000000000000e+00  5.5673614155859661e-06 7.7703849719408389e-09 0.0000000000000000e+00  5.6043964941106617e-06 -1.6599542406655387e-09 0.0000000000000000e+00  5.6042335449852850e-06 2.7371470184879669e-11 0.0000000000000000e+00  5.5660639515936618e-06 4.9948512247118404e-09 0.0000000