<?xml version="1.0"?>
<VTKFile type="UnstructuredGrid"  version="0.1"  >
<UnstructuredGrid>
<Piece  NumberOfPoints="1079" NumberOfCells="1944">
<Points>
<DataArray  type="Float64"  NumberOfComponents="3"  format="ascii">0.08500000000000001 0.02 0  0.005 0.02 0  0.005 0.03 0  0 0.03 0  0 0 0  0.005 0 0  0.005 0.01 0  0.08500000000000001 0.01 0  0 0.015 0  0 0.0075 0  0 0.0225 0  0.04500000000000001 0.02 0  0.04500000000000001 0.01 0  0.025 0.01 0  0.025 0.02 0  0.065 0.02 0  0.065 0.01 0  0.035 0.02 0  0.035 0.01 0  0.07500000000000001 0.02 0  0.07500000000000001 0.01 0  0.015 0.02 0  0.015 0.01 0  0.05500000000000001 0.01 0  0.05500000000000001 0.02 0  0.07000000000000001 0.01 0  0.07000000000000001 0.02 0  0.05 0.01 0  0.03 0.01 0  0.03 0.02 0  0.04000000000000001 0.01 0  0.01 0.01 0  0.02 0.02 0  0.06 0.015 0  0.08500000000000001 0.015 0  0.05 0.02 0  0.07250000000000001 0.015 0  0.04000000000000001 0.02 0  0.03750000000000001 0.015 0  0.0525 0.015 0  0.02 0.01 0  0.01 0.02 0  0.0275 0.015 0  0.0125 0.015 0  0.08000000000000002 0.01 0  0.08000000000000002 0.02 0  0.0325 0.014375 0  0.04291666666666667 0.015 0  0.065 0.015 0  0.005 0.005 0  0.005 0.015 0  0.02208333333333334 0.015 0  0.07791666666666668 0.015 0  0.005 0.025 0  0.06 0.01 0  0.06 0.02 0  0.01729166666666667 0.01572916666666667 0  0.04770833333333334 0.01427083333333334 0  0.06875000000000001 0.01625 0  0.008750000000000001 0.01625 0  0.05625000000000001 0.01625 0  0 0.00375 0  0 0.01875 0  0 0.01125 0  0 0.02625 0  0.08145833333333334 0.01354166666666667 0  0.0675 0.01 0  0.0075 0.0125 0  0.0625 0.0175 0  0.0575 0.0125 0  0.0625 0.0125 0  0.08207465277777778 0.01707465277777778 0  0.06767857142857144 0.01321428571428571 0  0.0175 0.01 0  0.01875 0.01291382575757576 0  0.0475 0.02 0  0.04564168086314595 0.01679860519591141 0  0.00296875 0.0125 0  0.0025 0.03 0  0.0025 0 0  0.00296875 0.0175 0  0.01521990740740741 0.0132349537037037 0  0.0497800925925926 0.0167650462962963 0  0.0325 0.02 0  0.03474264705882353 0.01674632352941176 0  0.03750000000000001 0.02 0  0.03025735294117647 0.01674632352941176 0  0.0275 0.02 0  0.0525 0.02 0  0.0125 0.01 0  0.04020833333333334 0.01322916666666667 0  0.03750000000000001 0.01 0  0.0225 0.02 0  0.02479166666666667 0.01677083333333333 0  0.07520833333333335 0.01322916666666667 0  0.07250000000000001 0.01 0  0.07520833333333335 0.01677083333333334 0  0.07250000000000001 0.02 0  0.04020833333333334 0.01677083333333333 0  0.0225 0.01 0  0.02375 0.01262152777777778 0  0.04250000000000001 0.02 0  0.04250000000000001 0.01 0  0.07750000000000001 0.01 0  0.07750000000000001 0.02 0  0.05036151960784314 0.01294424019607843 0  0.0705560064935065 0.01284699675324675 0  0.05458333333333334 0.01291666666666666 0  0.0021875 0.024375 0  0.005 0.0275 0  0.01125 0.0175 0  0.01463848039215686 0.01705575980392157 0  0.01 0.01375 0  0.03625 0.0125 0  0.0021875 0.009375 0  0.05375000000000001 0.0175 0  0.07125000000000001 0.0175 0  0.005 0.0025 0  0.0021875 0.005625 0  0.02655220103578155 0.01234889948210923 0  0.002187499999999999 0.020625 0  0.02979166666666667 0.01302083333333333 0  0.0525 0.01 0  0.07895833333333334 0.0125 0  0.01994277885235332 0.01704213007736944 0  0.07934656179076068 0.01733823814273861 0  0.04505722114764669 0.01295786992263056 0  0.06625 0.0175 0  0.006250000000000001 0.0175 0  0.05750000000000001 0.02 0  0.05875000000000001 0.0175 0  0.005 0.0225 0  0.005 0.0075 0  0.002375 0.027375 0  0.002375 0.002625000000000001 0  0.0475 0.01 0  0.0175 0.02 0  0.0325 0.01 0  0.03375 0.0121875 0  0.04261299435028249 0.01749205508474576 0  0.08500000000000001 0.0125 0  0.08250000000000002 0.01 0  0.02121963399965531 0.01224824108143494 0  0.0675 0.02 0  0.0125 0.02 0  0.02720152243589744 0.0175 0  0.03715165441176471 0.0175 0  0.08500000000000001 0.0175 0  0.0275 0.01 0  0.0025 0.0149560546875 0  0.0075 0.01 0  0.0075 0.02 0  0.06526785714285716 0.0125 0  0.01281031447005516 0.0125 0  0.0625 0.015 0  0.06 0.0125 0  0.05750000000000001 0.01 0  0.0625 0.02 0  0.0625 0.01 0  0.08250000000000002 0.02 0  0.04260103740101855 0.01252623201412851 0  0.02240052247582197 0.01750164767101344 0  0.07293583459427785 0.01238479732953041 0  0.005234374999999999 0.012265625 0  0.03528131980640358 0.01454684009679821 0  0.0325 0.01760027210036557 0  0.02532593822924343 0.01428227733767297 0  0.08009952069819683 0.01527145502895417 0  0.01987282359856536 0.01482587683689801 0  0.04828232595121382 0.01210233572595705 0  0.01671767404878618 0.01789766427404295 0  0.05125 0.01829007549029352 0  0.05247215456215357 0.01288882122882024 0  0.07338729919678716 0.01799385040160642 0  0.03838729919678716 0.01200614959839357 0  0.07717482110586968 0.01780301674207099 0  0.04771860040890012 0.01773306039388322 0  0.03125 0.01160380747126437 0  0.06875000000000001 0.01154265873015873 0  0.07625000000000001 0.01154065860215054 0  0.01625 0.01153997817696946 0  0.068125 0.018125 0  0.05437500000000001 0.015625 0  0.066875 0.015625 0  0.07039794950204951 0.01494384850614853 0  0.05687500000000001 0.018125 0  0.006875 0.015625 0  0.008749999999999999 0.01833333333333333 0  0.010625 0.015625 0  0.05625 0.01416666666666667 0  0.05812500000000001 0.015625 0  0.0449088595298192 0.01494528408816316 0  0 0.016875 0  0 0.013125 0  0.04962452342047931 0.01478673066448802 0  0.0153754765795207 0.01521326933551198 0  0.0771774565913315 0.01322498191305479 0  0.01857756431135545 0.01840228599899994 0  0.04642243568864456 0.01159771400100006 0  0.08125000000000002 0.01155637254901961 0  0.08317650804863432 0.0118234919513657 0  0.08288217288011697 0.01511353252923977 0  0.02837253504384828 0.0117177464035174 0  0.03896057962520807 0.01831163685754031 0  0.01125 0.0114244162490927 0  0.00935910490099115 0.0119067901980177 0  0.02946078431372549 0.01495404411764706 0  0.02875 0.0185829434466942 0  0.002968749999999999 0.0225 0  0.064375 0.016875 0  0.00296875 0.0075 0  0 0.001875 0  0 0.005625 0  0 0.009375 0  0 0.020625 0  0 0.024375 0  0 0.028125 0  0.06062500000000001 0.01812500000000001 0  0.008303571428571429 0.01446428571428572 0  0.01375 0.01865917058160413 0  0.05137790313978056 0.01143372888932909 0  0.04125000000000001 0.01131513063942604 0  0.04101690263896279 0.01844430285842771 0  0.02399563533148224 0.01844349395710867 0  0.08125000000000002 0.01868815426145731 0  0.05354684380692146 0.01145463537600848 0  0.01699195823639423 0.01315138909884649 0  0.07598357371794873 0.015 0  0.04098357371794872 0.015 0  0.003744047619047619 0.00375 0  0.003344630281690141 0.02580853873239437 0  0.04625 0.0187354532243972 0  0.06388392857142858 0.01138392857142858 0  0.06375 0.01375 0  0.05875 0.01375 0  0.06375 0.02 0  0.00622802734375 0.01372802734375 0  0.003630681818181818 0.001369318181818182 0  0.003630681818181818 0.02863068181818182 0  0.06125 0.01625 0  0.06125 0.01125 0  0.05625000000000001 0.01 0  0.05875 0.01125 0  0.06125 0.01375 0  0.08337864763241221 0.0183786476324122 0  0.05213634138653413 0.01674432930673294 0  0.04375000000000001 0.01 0  0.07424178685897437 0.01529258578431373 0  0.03924178685897436 0.01529258578431372 0  0.03410139294454583 0.01843406022904556 0  0.03089860705545417 0.01843406022904556 0  0.02094160484316717 0.01850229584291991 0  0.04375000000000001 0.02 0  0.04437042160883325 0.01820701498672512 0  0.04816311705429156 0.01600061344661149 0  0.07151224904251052 0.0114127410511319 0  0.04395528506193162 0.01639387970349481 0  0.0128750358694518 0.0167500179347259 0  0.02855808448399799 0.01642839899839741 0  0.02812690373330794 0.01340955081400569 0  0.08358500641945087 0.01351822349116885 0  0.05590277777777778 0.01173611111111111 0  0.06683110430364615 0.01164926404662283 0  0.02573206694914602 0.01842532451809762 0  0.01438126661842046 0.01166701193099454 0  0.02384283211216029 0.01526549696571563 0  0.03625 0.02 0  0.004609375000000001 0.0182421875 0  0.003398437500000001 0.01943359375 0  0.001728307845744682 0.01894718251329787 0  0.004377805359085963 0.01656966216675735 0  0.04649673309852075 0.0153889662370871 0  0.03615513600614297 0.01592654988586041 0  0.03316985071935832 0.01598763605018279 0  0.03110111603888768 0.01529816275177977 0  0.01370614113484869 0.0138804542047638 0  0.04930041102671841 0.01842260568883502 0  0.07875000000000001 0.02 0  0.0745395359848485 0.01165101111925709 0  0.03860755698543604 0.01373741558556884 0  0.02605038706571737 0.01573944002207753 0  0.07559826163500957 0.01841729376139847 0  0.04437500000000001 0.01149157931286774 0  0.06874116707361365 0.01454618473032123 0  0.003761917372881356 0.0239307468220339 0  0.003984374999999999 0.01125 0  0.003768503289473684 0.01392539576480263 0  0.001796875 0.0111328125 0  0.003761917372881356 0.008930746822033899 0  0.005 0.00625 0  0.003761917372881355 0.0210692531779661 0  0.06633928571428571 0.01410714285714285 0  0.006484375 0.01125 0  0.08364120589325512 0.01657288979763549 0  0.03576267476503373 0.0184116442851204 0  0.07370875846579374 0.0137848203678562 0  0.06964285714285715 0.01758928571428571 0  0.05520833333333334 0.01833333333333333 0  0.06491071428571429 0.01839285714285714 0  0.0510098951944636 0.01559941474766356 0  0.01786087179886325 0.0115702210443714 0  0.01972197383235524 0.01160576093166696 0  0.01804697593127788 0.01433503795474974 0  0.001644074528704677 0.01642892723865279 0  0.00125 0.03 0  0.001497685185185185 0.001267746913580247 0  0.07315451164202422 0.01643443118912983 0  0.001233906745910645 0.0140625 0  0.01162635071030191 0.01362229857939618 0  0.01528023503083844 0.01845923557506155 0  0.06625 0.02 0  0.07695012019230771 0.01624387078484555 0  0.03139091092855769 0.01320776147621796 0  0.03857339107781042 0.01675295051810485 0  0.001754993120977522 0.02590789105493891 0  0.002288757784711197 0.00412546923654445 0  0.07914382119690884 0.01404430049871201 0  0.001391810103286306 0.01257390899021902 0  0.0419501201923077 0.01614675005432421 0  0.001484375 0.007018229166666667 0  0.001484375 0.02201822916666666 0  0.048
[...]
<PointData  Vectors="velocity"> 
<DataArray  type="Float64"  Name="velocity"  NumberOfComponents="3" format="ascii">3.8769308066281031e-06 2.9568607207878455e-20 0.0000000000000000e+00  8.0549209168292679e-20 -8.9767618661997286e-20 0.0000000000000000e+00  3.5051778456934640e-18 -1.8738174228603966e-04 0.0000000000000000e+00  -3.8463898483715910e-18 -1.8738174228603938e-04 0.0000000000000000e+00  -3.8463898483715949e-18 1.8738174228603944e-04 0.0000000000000000e+00  3.5361971186642087e-18 1.8738174228603933e-04 0.0000000000000000e+00  7.8162917891354797e-20 7.3126861288157589e-20 0.0000000000000000e+00  3.9816284136291953e-06 -2.8311567094913659e-20 0.0000000000000000e+00  9.1929082095787837e-21 -3.1253362388334466e-22 0.0000000000000000e+00  -9.9687260551639177e-22 7.0333763296803324e-20 0.0000000000000000e+00  3.5613482793219825e-22 -8.1641527121147831e-20 0.0000000000000000e+00  7.4157262673485503e-20 -2.7723895338608995e-22 0.0000000000000000e+00  6.2078689214120847e-20 3.8696522651294463e-22 0.0000000000000000e+00  7.8197624412566402e-20 2.3588259100144814e-22 0.0000000000000000e+00  5.9646591550105903e-20 -2.4896045756981211e-22 0.0000000000000000e+00  6.9807212654383743e-20 2.1560138979875438e-22 0.0000000000000000e+00  7.1168020054335075e-20 9.2518325176204305e-23 0.0000000000000000e+00  5.5288822522400333e-20 -1.4433608200605423e-22 0.0000000000000000e+00  8.2003631413137235e-20 -7.4250559408735473e-23 0.0000000000000000e+00  7.0145389159289341e-20 4.3284384880687840e-22 0.0000000000000000e+00  6.3553522450563885e-20 2.7534736986812694e-22 0.0000000000000000e+00  6.0317366805069860e-20 -1.8033587731684048e-22 0.0000000000000000e+00  6.1723573298989385e-20 -1.3257820148105528e-22 0.0000000000000000e+00  7.1129451473114570e-20 -8.2024397775570199e-22 0.0000000000000000e+00  6.7856230843500433e-20 3.1479843973929513e-22 0.0000000000000000e+00  6.6740697935866612e-20 1.0088182942072228e-22 0.0000000000000000e+00  7.5967822980572986e-20 -2.8774749894985274e-22 0.0000000000000000e+00  7.1209593469469746e-20 2.2978210074391410e-22 0.0000000000000000e+00  7.3966594610175141e-20 4.6798846721886782e-23 0.0000000000000000e+00  5.9883461808198170e-20 -1.5968091181994340e-22 0.0000000000000000e+00  6.8904474841212287e-20 2.2730442643935702e-22 0.0000000000000000e+00  7.2606436668184888e-20 4.0462962101540534e-22 0.0000000000000000e+00  6.3566090428712163e-20 -1.3134976792617720e-22 0.0000000000000000e+00  9.8876758344000575e-06 -1.4448255709549996e-09 0.0000000000000000e+00  9.4962413421044638e-06 2.9899634693367585e-23 0.0000000000000000e+00  6.4439625172385386e-20 3.2411611908973061e-23 0.0000000000000000e+00  9.8874931923293006e-06 3.3333754253274238e-09 0.0000000000000000e+00  7.1140435931607407e-20 -6.8968656946896622e-22 0.0000000000000000e+00  9.8792630424342848e-06 -4.8089307350046793e-09 0.0000000000000000e+00  9.8773760444785512e-06 -5.3839462920868169e-10 0.0000000000000000e+00  6.3870632652111170e-20 3.0701703846446666e-23 0.0000000000000000e+00  7.1875977517400942e-20 -1.3864008594412465e-21 0.0000000000000000e+00  9.8786502087754483e-06 -2.5373097667244444e-10 0.0000000000000000e+00  9.8580468692639219e-06 -3.7779897136727425e-08 0.0000000000000000e+00  6.2035360574235637e-20 -2.9309861580833058e-22 0.0000000000000000e+00  6.8151562775124263e-20 1.2458978886783962e-21 0.0000000000000000e+00  9.8763640227137228e-06 2.9037178923953384e-10 0.0000000000000000e+00  9.8863763166573094e-06 -9.6379317521185876e-10 0.0000000000000000e+00  9.8837089821637557e-06 -8.3179915881673183e-10 0.0000000000000000e+00  -5.0755603682158207e-21 8.5985963885068018e-20 0.0000000000000000e+00  7.4689112604146162e-06 -3.8492528412309727e-07 0.0000000000000000e+00  9.8748137583697426e-06 2.4363897777586362e-09 0.0000000000000000e+00  9.8722339429366420e-06 5.0825218943143649e-10 0.0000000000000000e+00  -7.5579216425068367e-21 -1.0670604587178194e-19 0.0000000000000000e+00  5.9776723954027944e-20 1.3126645462877756e-22 0.0000000000000000e+00  7.5422221921766790e-20 8.9161980967924973e-22 0.0000000000000000e+00  9.8794410612887827e-06 -3.4043718404607613e-09 0.0000000000000000e+00  9.8826192998519583e-06 2.6135453304968609e-09 0.0000000000000000e+00  9.8837841968919274e-06 -2.5211459968851634e-09 0.0000000000000000e+00  9.7311482034369516e-06 -3.1265076847181277e-07 0.0000000000000000e+00  9.8767572061380503e-06 -7.4311808461708447e-09 0.0000000000000000e+00  -4.5589244169415868e-20 1.4445681711185214e-20 0.0000000000000000e+00  4.0277269628054119e-21 -3.7315495271746054e-20 0.0000000000000000e+00  5.3996144424659420e-21 4.1037069762741162e-20 0.0000000000000000e+00  -5.1769202200139797e-20 1.3156813818820060e-20 0.0000000000000000e+00  9.7814719450478917e-06 -9.4512079941941614e-08 0.0000000000000000e+00  6.1021171516994186e-20 -1.7075623861126367e-22 0.0000000000000000e+00  9.7434032869513375e-06 5.6311659687201355e-07 0.0000000000000000e+00  9.8653747448325414e-06 2.8307942304093484e-10 0.0000000000000000e+00  9.8697895933559476e-06 8.3193682730777760e-10 0.0000000000000000e+00  9.8786303237694462e-06 -4.2429310308240011e-09 0.0000000000000000e+00  9.7708064759179241e-06 1.8071150764294395e-07 0.0000000000000000e+00  9.8775408690903943e-06 -2.0014186287848132e-09 0.0000000000000000e+00  6.6514774729869051e-20 -1.9562151383953274e-23 0.0000000000000000e+00  9.8696411043407643e-06 -1.1963266514077687e-10 0.0000000000000000e+00  8.1953804263406973e-20 1.1660424659281642e-21 0.0000000000000000e+00  9.8863616879023979e-06 -7.5307032864823313e-09 0.0000000000000000e+00  4.7272609543720635e-06 3.8622103430345666e-06 0.0000000000000000e+00  -2.2951256509169830e-19 -1.8738174228604033e-04 0.0000000000000000e+00  -3.3947924444336395e-19 1.8738174228604044e-04 0.0000000000000000e+00  4.8920272448612251e-06 -4.8052794732706981e-06 0.0000000000000000e+00  9.8658850554220862e-06 -1.3683668120531292e-08 0.0000000000000000e+00  9.8743568599775651e-06 8.8741246328535648e-09 0.0000000000000000e+00  6.6371983567958501e-20 5.8744537323093455e-22 0.0000000000000000e+00  9.8735102410039673e-06 -3.0468924691126185e-09 0.0000000000000000e+00  7.1318281529237191e-20 4.5601320783929801e-22 0.0000000000000000e+00  9.8754159507878202e-06 -3.1373891335764458e-09 0.0000000000000000e+00  8.0606695568931779e-20 1.4589596732374708e-22 0.0000000000000000e+00  6.6873764180041984e-20 -1.1121585857341305e-23 0.0000000000000000e+00  7.0818020827585416e-20 3.9371855072760096e-22 0.0000000000000000e+00  9.8786040047383327e-06 3.0567462258090987e-09 0.0000000000000000e+00  6.7337447072011119e-20 2.2596342834023446e-22 0.0000000000000000e+00  7.2185171314205257e-20 1.7790031084491153e-22 0.0000000000000000e+00  9.8723741241171263e-06 7.6306104322352608e-10 0.0000000000000000e+00  9.8819939294630059e-06 1.5750843910458907e-09 0.0000000000000000e+00  6.8580847607236978e-20 4.9347634201596746e-23 0.0000000000000000e+00  9.8801041694342296e-06 6.7789029593050171e-09 0.0000000000000000e+00  7.5977381677320321e-20 8.1844977162572242e-22 0.0000000000000000e+00  9.8846721265929200e-06 -1.2549146019889903e-08 0.0000000000000000e+00  6.4619376588851210e-20 2.1719812261877680e-23 0.0000000000000000e+00  9.8638567948671647e-06 6.6586164942239761e-09 0.0000000000000000e+00  7.2867949288522776e-20 -1.1737749563228539e-23 0.0000000000000000e+00  6.5421142756819523e-20 6.4212120518433973e-22 0.0000000000000000e+00  7.1891874060606169e-20 1.2200808426763092e-21 0.0000000000000000e+00  7.5496545473418846e-20 -4.6393518530853686e-22 0.0000000000000000e+00  9.8807182034340283e-06 7.4833291353226377e-09 0.0000000000000000e+00  9.8830307811177874e-06 1.1683708303657133e-08 0.0000000000000000e+00  9.8801470351594405e-06 1.2210620244944884e-09 0.0000000000000000e+00  -2.0524192032812077e-06 -1.0852466531523495e-05 0.0000000000000000e+00  1.4142261851552344e-20 -1.4973312108075610e-19 0.0000000000000000e+00  9.9148285222837444e-06 -8.3266287998054006e-08 0.0000000000000000e+00  9.8940901799387818e-06 -2.7395557205680035e-08 0.0000000000000000e+00  9.7634213087671867e-06 2.5337372515928304e-08 0.0000000000000000e+00  9.8566053185656713e-06 -1.0587134334246001e-08 0.0000000000000000e+00  1.6595433736746135e-06 8.8362935818927015e-06 0.0000000000000000e+00  9.8651921819183840e-06 -1.6762341915013839e-11 0.0000000000000000e+00  9.8861646403751059e-06 1.3926895080645038e-12 0.0000000000000000e+00  2.7371448295690230e-20 8.2820642421742093e-20 0.0000000000000000e+00  -1.8127579804582076e-06 9.3964783173090728e-06 0.0000000000000000e+00  9.8638250947317214e-06 -6.7641336396597367e-09 0.0000000000000000e+00  1.6513332386344343e-06 -1.0162929416071521e-05 0.0000000000000000e+00  9.8808285135077817e-06 -1.6385170524373883e-09 0.0000000000000000e+00  6.5431144473191779e-20 -5.4006788997097504e-22 0.0000000000000000e+00  9.8616612523114240e-06 -3.0134400505395025e-08 0.0000000000000000e+00  9.8710643267477579e-06 1.0394928480118173e-10 0.0000000000000000e+00  9.8667576753070181e-06 4.5555874108746577e-08 0.0000000000000000e+00  9.8832605202936755e-06 -2.1977649683621916e-09 0.0000000000000000e+00  9.8789938565731528e-06 -1.1671393163788945e-08 0.0000000000000000e+00  9.8596470740627413e-06 -1.8153666406708758e-06 0.0000000000000000e+00  7.0993376125007331e-20 -9.7250673306636893e-22 0.0000000000000000e+00  9.8610207509174462e-06 -3.5078410505087323e-09 0.0000000000000000e+00  8.3236844132623598e-22 -9.2119228637333606e-20 0.0000000000000000e+00  7.6547560956194693e-22 8.0493095790342872e-20 0.0000000000000000e+00  -2.2453576453565993e-05 -2.4773501216205135e-05 0.0000000000000000e+00  -1.8284626086423252e-05 2.0376036111288838e-05 0.0000000000000000e+00  6.7271888637434732e-20 2.2575671390891704e-23 0.0000000000000000e+00  7.8096276402519868e-20 1.1127414118840742e-21 0.0000000000000000e+00  6.6093468479085708e-20 1.2602885926138565e-22 0.0000000000000000e+00  9.8614928116173022e-06 1.2019417711742060e-08 0.0000000000000000e+00  9.8656148217904667e-06 7.2582572653470042e-09 0.0000000000000000e+00  8.9746325599904268e-06 -2.3874374958679763e-21 0.0000000000000000e+00  6.8610520022222230e-20 -2.5944149938700437e-21 0.0000000000000000e+00  9.8654627209894744e-06 2.7951598726524706e-09 0.0000000000000000e+00  6.9118122157139581e-20 4.8416356102738104e-22 0.0000000000000000e+00  6.7092261078880545e-20 -1.4236397991274808e-22 0.0000000000000000e+00  9.8751416645003221e-06 -1.2543312394255817e-09 0.0000000000000000e+00  9.8858730218143535e-06 1.0553187087646389e-09 0.0000000000000000e+00  8.9643864190598116e-06 3.0237678735070958e-21 0.0000000000000000e+00  7.0227112179309580e-20 -8.7113221142255415e-22 0.0000000000000000e+00  3.6738910621421542e-06 -3.5370189519235620e-07 0.0000000000000000e+00  7.1669276885986368e-20 2.3663737733283914e-21 0.0000000000000000e+00  8.5583367793582373e-20 -3.3684900489189507e-21 0.0000000000000000e+00  9.8755719102971128e-06 -4.4262611366490029e-09 0.0000000000000000e+00  9.8415254170763066e-06 -1.1562874446429112e-08 0.0000000000000000e+00  9.8885715075816081e-06 6.7630161542676144e-11 0.0000000000000000e+00  9.8699151733064150e-06 6.2220223225758077e-09 0.0000000000000000e+00  7.1972755077686406e-20 8.0880414330289238e-23 0.0000000000000000e+00  8.7294102650761280e-20 2.0004659733804727e-22 0.0000000000000000e+00  7.0469628538348555e-20 -1.3085190675679817e-21 0.0000000000000000e+00  6.4659229405595979e-20 1.2686109113494818e-21 0.0000000000000000e+00  9.8680691061091469e-06 -1.5927192441864163e-09 0.0000000000000000e+00  9.8692897343114582e-06 3.7571644495423959e-09 0.0000000000000000e+00  9.8669815223025943e-06 -3.2657050104211853e-09 0.0000000000000000e+00  8.9507216202997215e-06 2.6723569130270901e-06 0.0000000000000000e+00  9.8807147516128952e-06 -2.8407039827252084e-09 0.0000000000000000e+00  9.8645858499002175e-06 3.1985630953140263e-09 0.0000000000000000e+00  9.8782899210367300e-06 2.9053592761541516e-09 0.0000000000000000e+00  9.8233313219152505e-06 1.1046093951406402e-08 0.0000000000000000e+00  9.8737960245455386e-06 7.2049369959485480e-10 0.0000000000000000e+00  9.8425576042874994e-06 2.7109667833522317e-09 0.0000000000000000e+00  9.8653975395426374e-06 1.8816076635807913e-09 0.0000000000000000e+00  9.8232494729958813e-06 7.2302098345689063e-10 0.0000000000000000e+00  9.8768809017030817e-06 -9.4791529493688877e-09 0.0000000000000000e+00  9.8474171122023157e-06 5.7881472401827087e-09 0.0000000000000000e+00  9.8383164803110211e-06 -3.6399777481939605e-09 0.0000000000000000e+00  9.8609593291002814e-06 4.0483942537237686e-09 0.0000000000000000e+00  9.8748870051219307e-06 1.2323701662705380e-08 0.0000000000000000e+00  9.8083330563283932e-06 -1.1418895084739432e-08 0.0000000000000000e+00  9.8074742873172766e-06 1.0679369326961250e-08 0.0000000000000000e+00  9.8235659551481271e-06 -1.5183049490449800e-09 0.0000000000000000e+00  9.8035211367824372e-06 -7.0654372276992912e-09 0.0000000000000000e+00  9.8283339289834906e-06 -6.0038759934603321e-09 0.0000000000000000e+00  9.8762698213355304e-06 -2.6893390701918157e-09 0.0000000000000000e+00  9.8819389581513896e-06 -1.8254893345644163e-09 0.0000000000000000e+00  9.8862752463448643e-06 2.3194595619821310e-09 0.0000000000000000e+00  9.8383402041281841e-06 -9.3211445866947926e-09 0.0000000000000000e+00  9.0541468029913026e-06 -5.5172225316071072e-07 0.0000000000000000e+00  1.0112187062654652e-05 -2.9916458693982234e-07 0.0000000000000000e+00  9.8177246488072339e-06 -9.5126855615667796e-08 0.0000000000000000e+00  9.8798332481380919e-06 -3.0136608854574758e-09 0.0000000000000000e+00  9.8850939911118595e-06 -6.6345573337875113e-09 0.0000000000000000e+00  9.8853491140158888e-06 -1.5656664891669765e-09 0.0000000000000000e+00  6.1808102384599498e-21 -2.4647402791404710e-20 0.0000000000000000e+00  9.4098387171087592e-21 2.1636557177999320e-20 0.0000000000000000e+00  9.8800707241752094e-06 4.7565051625579834e-09 0.0000000000000000e+00  9.8779149393455276e-06 -1.5520433179402417e-08 0.0000000000000000e+00  9.8868707698112944e-06 1.9204036662208357e-09 0.0000000000000000e+00  9.8104000785240015e-06 4.4214393370772400e-09 0.0000000000000000e+00  9.8295369844249335e-06 5.2847248121710088e-09 0.0000000000000000e+00  9.8835155278582193e-06 -1.3288522112008288e-07 0.0000000000000000e+00  9.7581078752379804e-06 -6.1335355425402454e-07 0.0000000000000000e+00  9.6277936049971031e-06 1.0544403596326697e-08 0.0000000000000000e+00  9.8159914150519693e-06 8.5643850234586735e-09 0.0000000000000000e+00  9.8183940092761773e-06 -8.5102983235430499e-10 0.0000000000000000e+00  9.4369405351552793e-06 4.4015838594269366e-09 0.0000000000000000e+00  9.8468428208635816e-06 1.3033357652369774e-07 0.0000000000000000e+00  9.8776676037388861e-06 -1.3741869430200341e-09 0.0000000000000000e+00  9.7805323023846464e-06 1.1608768601098880e-08 0.0000000000000000e+00  8.1916854918082327e-08 -1.1615244478321971e-05 0.0000000000000000e+00  9.8793557855756781e-06 6.1061894882918708e-09 0.0000000000000000e+00  1.1549260593924434e-07 1.0083089211955336e-05 0.0000000000000000e+00  -4.1148524416464283e-19 -4.2900506365450942e-19 0.0000000000000000e+00  -7.8856221268689184e-21 5.9454186970925379e-20 0.0000000000000000e+00  3.9775107648441874e-21 6.8057298934715796e-20 0.0000000000000000e+00  3.5255750053761982e-21 -6.8303344448715958e-20 0.0000000000000000e+00  -7.8979753045545522e-21 -7.3575875205587141e-20 0.0000000000000000e+00  -4.4418500973491664e-19 3.4765830301842913e-19 0.0000000000000000e+00  9.8464976809563541e-06 -6.8372778478911108e-09 0.0000000000000000e+00  9.4974387014264493e-06 -3.8778460287075933e-09 0.0000000000000000e+00  9.4977583368867016e-06 -2.2662200883358778e-08 0.0000000000000000e+00  9.4878818350273775e-06 3.2953124158309079e-09 0.0000000000000000e+00  9.4927384896741738e-06 -1.3230343036239652e-09 0.0000000000000000e+00  9.4846960909981081e-06 1.0493574118562675e-08 0.0000000000000000e+00  9.7955398814443973e-06 1.2979217609160128e-08 0.0000000000000000e+00  9.8378801725980315e-06 1.4319832483477937e-07 0.0000000000000000e+00  9.7987020648864087e-06 -1.6943533845269899e-09 0.0000000000000000e+00  9.8671398831130364e-06 -5.5173595979060447e-09 0.0000000000000000e+00  9.8815631132199455e-06 2.7784189666578480e-09 0.0000000000000000e+00  9.8847690857277887e-06 -2.1752422823937939e-09 0.0000000000000000e+00  -1.7647859380832299e-06 1.4569292498881097e-05 0.0000000000000000e+00  -3.6089005988473702e-06 -1.5157090008990953e-05 0.0000000000000000e+00  9.5154641899993958e-06 -3.2390682326125591e-08 0.0000000000000000e+00  9.7786651711094943e-06 1.2238072276093888e-08 0.0000000000000000e+00  9.8858678811877969e-06 -1.9850702854191117e-09 0.0000000000000000e+00  9.8837436863440828e-06 -2.2562247823111394e-09 0.0000000000000000e+00  6.8961533737724714e-20 8.1288614101751306e-22 0.0000000000000000e+00  8.7438501306752026e-06 6.4047586028281969e-07 0.0000000000000000e+00  4.0525378730794206e-05 4.7306715851717866e-05 0.0000000000000000e+00  4.1077616992957078e-05 -5.0407829936194124e-05 0.0000000000000000e+00  9.8895281167911261e-06 -1.5881467137942932e-09 0.0000000000000000e+00  9.4166613810455445e-06 9.4763415958598052e-09 0.0000000000000000e+00  6.6283318368970575e-20 1.9422392762294169e-22 0.0000000000000000e+00  9.4593475370702184e-06 -1.5244035697392985e-08 0.0000000000000000e+00  9.8896216644841420e-06 1.7444402268917365e-09 0.0000000000000000e+00  9.7546666135848888e-06 7.8502489771447229e-07 0.0000000000000000e+00  9.8726394138881071e-06 4.0364023334417180e-10 0.0000000000000000e+00  7.6779960952762135e-20 -7.1018979087100188e-22 0.0000000000000000e+00  9.8843759884857246e-06 3.9687289350081243e-09 0.0000000000000000e+00  9.8805834301028393e-06 -4.4058981025650785e-09 0.0000000000000000e+00  9.7992330196038961e-06 -3.3480151963680777e-09 0.0000000000000000e+00  9.8257495216250122e-06 1.8747869966356143e-09 0.0000000000000000e+00  9.8013925154460407e-06 -7.4083492481617033e-09 0.0000000000000000e+00  7.0380135739874298e-20 5.7407349171602055e-22 0.0000000000000000e+00  9.8315126664197614e-06 -2.8643739774534141e-09 0.0000000000000000e+00  9.8854033069468610e-06 7.8708193284337166e-09 0.0000000000000000e+00  9.5093885040946752e-06 2.2282069274352353e-08 0.0000000000000000e+00  9.8838421773399390e-06 -4.2694718323908776e-10 0.0000000000000000e+00  9.8849036839156019e-06 -4.8444678931987438e-08 0.0000000000000000e+00  9.8764679543025185e-06 1.3687268769298632e-09 0.0000000000000000e+00  9.8777312878042756e-06 -2.3190041422953896e-09 0.0000000000000000e+00  9.5335228598036270e-06 -1.4941441746690404e-07 0.0000000000000000e+00  9.8250343139836664e-06 5.9852118294555451e-09 0.0000000000000000e+00  9.8211682184537604e-06 -8.7997358642250965e-09 0.0000000000000000e+00  9.8113553175937712e-06 -6.3436337929962555e-09 0.0000000000000000e+00  9.8288333820393675e-06 -1.5828612360033814e-08 0.0000000000000000e+00  9.8758155806937172e-06 3.0675367231154482e-09 0.0000000000000000e+00  7.4474501348333126e-20 -8.5109279707567757e-22 0.0000000000000000e+00  9.1391895817583307e-06 -5.2804798765424678e-06 0.0000000000000000e+00  5.3967868151355429e-06 -9.9419300697002567e-06 0.0000000000000000e+00  2.3016958603576954e-06 -7.4716586110086218e-06 0.0000000000000000e+00  7.0650653253200834e-06 -2.5253111575296119e-06 0.0000000000000000e+00  9.8868735261939765e-06 5.1658693988324696e-10 0.0000000000000000e+00  9.8787751095108917e-06 -5.2132887568814813e-09 0.0000000000000000e+00  9.8775525147257916e-06 8.3997635250263184e-10 0.0000000000000000e+00  9.8773311428345790e-06 -1.8870871780764847e-09 0.0000000000000000e+00  9.8644727775483412e-06 -2.0746720714728129e-08 0.0000000000000000e+00  9.8194148341010084e-06 2.1872107491454369e-08 0.0000000000000000e+00  7.8492046656180354e-20 1.7089713027088449e-22 0.0000000000000000e+00  9.8124014480888305e-06 1.3690700036108160e-08 0.0000000000000000e+00  9.8776685253538077e-06 -2.9253543475050820e-09 0.0000000000000000e+00  9.8773797218129010e-06 5.3134554693109312e-11 0.0000000000000000e+00  9.8101085458674315e-06 8.8007612723753047e-09 0.0000000