<?xml version="1.0"?>
<VTKFile type="UnstructuredGrid"  version="0.1"  >
<UnstructuredGrid>
<Piece  NumberOfPoints="1079" NumberOfCells="1944">
<Points>
<DataArray  type="Float64"  NumberOfComponents="3"  format="ascii">0.08500000000000001 0.02 0  0.005 0.02 0  0.005 0.03 0  0 0.03 0  0 0 0  0.005 0 0  0.005 0.01 0  0.08500000000000001 0.01 0  0 0.015 0  0 0.0075 0  0 0.0225 0  0.04500000000000001 0.02 0  0.04500000000000001 0.01 0  0.025 0.01 0  0.025 0.02 0  0.065 0.02 0  0.065 0.01 0  0.035 0.02 0  0.035 0.01 0  0.07500000000000001 0.02 0  0.07500000000000001 0.01 0  0.015 0.02 0  0.015 0.01 0  0.05500000000000001 0.01 0  0.05500000000000001 0.02 0  0.07000000000000001 0.01 0  0.07000000000000001 0.02 0  0.05 0.01 0  0.03 0.01 0  0.03 0.02 0  0.04000000000000001 0.01 0  0.01 0.01 0  0.02 0.02 0  0.06 0.015 0  0.08500000000000001 0.015 0  0.05 0.02 0  0.07250000000000001 0.015 0  0.04000000000000001 0.02 0  0.03750000000000001 0.015 0  0.0525 0.015 0  0.02 0.01 0  0.01 0.02 0  0.0275 0.015 0  0.0125 0.015 0  0.08000000000000002 0.01 0  0.08000000000000002 0.02 0  0.0325 0.014375 0  0.04291666666666667 0.015 0  0.065 0.015 0  0.005 0.005 0  0.005 0.015 0  0.02208333333333334 0.015 0  0.07791666666666668 0.015 0  0.005 0.025 0  0.06 0.01 0  0.06 0.02 0  0.01729166666666667 0.01572916666666667 0  0.04770833333333334 0.01427083333333334 0  0.06875000000000001 0.01625 0  0.008750000000000001 0.01625 0  0.05625000000000001 0.01625 0  0 0.00375 0  0 0.01875 0  0 0.01125 0  0 0.02625 0  0.08145833333333334 0.01354166666666667 0  0.0675 0.01 0  0.0075 0.0125 0  0.0625 0.0175 0  0.0575 0.0125 0  0.0625 0.0125 0  0.08207465277777778 0.01707465277777778 0  0.06767857142857144 0.01321428571428571 0  0.0175 0.01 0  0.01875 0.01291382575757576 0  0.0475 0.02 0  0.04564168086314595 0.01679860519591141 0  0.00296875 0.0125 0  0.0025 0.03 0  0.0025 0 0  0.00296875 0.0175 0  0.01521990740740741 0.0132349537037037 0  0.0497800925925926 0.0167650462962963 0  0.0325 0.02 0  0.03474264705882353 0.01674632352941176 0  0.03750000000000001 0.02 0  0.03025735294117647 0.01674632352941176 0  0.0275 0.02 0  0.0525 0.02 0  0.0125 0.01 0  0.04020833333333334 0.01322916666666667 0  0.03750000000000001 0.01 0  0.0225 0.02 0  0.02479166666666667 0.01677083333333333 0  0.07520833333333335 0.01322916666666667 0  0.07250000000000001 0.01 0  0.07520833333333335 0.01677083333333334 0  0.07250000000000001 0.02 0  0.04020833333333334 0.01677083333333333 0  0.0225 0.01 0  0.02375 0.01262152777777778 0  0.04250000000000001 0.02 0  0.04250000000000001 0.01 0  0.07750000000000001 0.01 0  0.07750000000000001 0.02 0  0.05036151960784314 0.01294424019607843 0  0.0705560064935065 0.01284699675324675 0  0.05458333333333334 0.01291666666666666 0  0.0021875 0.024375 0  0.005 0.0275 0  0.01125 0.0175 0  0.01463848039215686 0.01705575980392157 0  0.01 0.01375 0  0.03625 0.0125 0  0.0021875 0.009375 0  0.05375000000000001 0.0175 0  0.07125000000000001 0.0175 0  0.005 0.0025 0  0.0021875 0.005625 0  0.02655220103578155 0.01234889948210923 0  0.002187499999999999 0.020625 0  0.02979166666666667 0.01302083333333333 0  0.0525 0.01 0  0.07895833333333334 0.0125 0  0.01994277885235332 0.01704213007736944 0  0.07934656179076068 0.01733823814273861 0  0.04505722114764669 0.01295786992263056 0  0.06625 0.0175 0  0.006250000000000001 0.0175 0  0.05750000000000001 0.02 0  0.05875000000000001 0.0175 0  0.005 0.0225 0  0.005 0.0075 0  0.002375 0.027375 0  0.002375 0.002625000000000001 0  0.0475 0.01 0  0.0175 0.02 0  0.0325 0.01 0  0.03375 0.0121875 0  0.04261299435028249 0.01749205508474576 0  0.08500000000000001 0.0125 0  0.08250000000000002 0.01 0  0.02121963399965531 0.01224824108143494 0  0.0675 0.02 0  0.0125 0.02 0  0.02720152243589744 0.0175 0  0.03715165441176471 0.0175 0  0.08500000000000001 0.0175 0  0.0275 0.01 0  0.0025 0.0149560546875 0  0.0075 0.01 0  0.0075 0.02 0  0.06526785714285716 0.0125 0  0.01281031447005516 0.0125 0  0.0625 0.015 0  0.06 0.0125 0  0.05750000000000001 0.01 0  0.0625 0.02 0  0.0625 0.01 0  0.08250000000000002 0.02 0  0.04260103740101855 0.01252623201412851 0  0.02240052247582197 0.01750164767101344 0  0.07293583459427785 0.01238479732953041 0  0.005234374999999999 0.012265625 0  0.03528131980640358 0.01454684009679821 0  0.0325 0.01760027210036557 0  0.02532593822924343 0.01428227733767297 0  0.08009952069819683 0.01527145502895417 0  0.01987282359856536 0.01482587683689801 0  0.04828232595121382 0.01210233572595705 0  0.01671767404878618 0.01789766427404295 0  0.05125 0.01829007549029352 0  0.05247215456215357 0.01288882122882024 0  0.07338729919678716 0.01799385040160642 0  0.03838729919678716 0.01200614959839357 0  0.07717482110586968 0.01780301674207099 0  0.04771860040890012 0.01773306039388322 0  0.03125 0.01160380747126437 0  0.06875000000000001 0.01154265873015873 0  0.07625000000000001 0.01154065860215054 0  0.01625 0.01153997817696946 0  0.068125 0.018125 0  0.05437500000000001 0.015625 0  0.066875 0.015625 0  0.07039794950204951 0.01494384850614853 0  0.05687500000000001 0.018125 0  0.006875 0.015625 0  0.008749999999999999 0.01833333333333333 0  0.010625 0.015625 0  0.05625 0.01416666666666667 0  0.05812500000000001 0.015625 0  0.0449088595298192 0.01494528408816316 0  0 0.016875 0  0 0.013125 0  0.04962452342047931 0.01478673066448802 0  0.0153754765795207 0.01521326933551198 0  0.0771774565913315 0.01322498191305479 0  0.01857756431135545 0.01840228599899994 0  0.04642243568864456 0.01159771400100006 0  0.08125000000000002 0.01155637254901961 0  0.08317650804863432 0.0118234919513657 0  0.08288217288011697 0.01511353252923977 0  0.02837253504384828 0.0117177464035174 0  0.03896057962520807 0.01831163685754031 0  0.01125 0.0114244162490927 0  0.00935910490099115 0.0119067901980177 0  0.02946078431372549 0.01495404411764706 0  0.02875 0.0185829434466942 0  0.002968749999999999 0.0225 0  0.064375 0.016875 0  0.00296875 0.0075 0  0 0.001875 0  0 0.005625 0  0 0.009375 0  0 0.020625 0  0 0.024375 0  0 0.028125 0  0.06062500000000001 0.01812500000000001 0  0.008303571428571429 0.01446428571428572 0  0.01375 0.01865917058160413 0  0.05137790313978056 0.01143372888932909 0  0.04125000000000001 0.01131513063942604 0  0.04101690263896279 0.01844430285842771 0  0.02399563533148224 0.01844349395710867 0  0.08125000000000002 0.01868815426145731 0  0.05354684380692146 0.01145463537600848 0  0.01699195823639423 0.01315138909884649 0  0.07598357371794873 0.015 0  0.04098357371794872 0.015 0  0.003744047619047619 0.00375 0  0.003344630281690141 0.02580853873239437 0  0.04625 0.0187354532243972 0  0.06388392857142858 0.01138392857142858 0  0.06375 0.01375 0  0.05875 0.01375 0  0.06375 0.02 0  0.00622802734375 0.01372802734375 0  0.003630681818181818 0.001369318181818182 0  0.003630681818181818 0.02863068181818182 0  0.06125 0.01625 0  0.06125 0.01125 0  0.05625000000000001 0.01 0  0.05875 0.01125 0  0.06125 0.01375 0  0.08337864763241221 0.0183786476324122 0  0.05213634138653413 0.01674432930673294 0  0.04375000000000001 0.01 0  0.07424178685897437 0.01529258578431373 0  0.03924178685897436 0.01529258578431372 0  0.03410139294454583 0.01843406022904556 0  0.03089860705545417 0.01843406022904556 0  0.02094160484316717 0.01850229584291991 0  0.04375000000000001 0.02 0  0.04437042160883325 0.01820701498672512 0  0.04816311705429156 0.01600061344661149 0  0.07151224904251052 0.0114127410511319 0  0.04395528506193162 0.01639387970349481 0  0.0128750358694518 0.0167500179347259 0  0.02855808448399799 0.01642839899839741 0  0.02812690373330794 0.01340955081400569 0  0.08358500641945087 0.01351822349116885 0  0.05590277777777778 0.01173611111111111 0  0.06683110430364615 0.01164926404662283 0  0.02573206694914602 0.01842532451809762 0  0.01438126661842046 0.01166701193099454 0  0.02384283211216029 0.01526549696571563 0  0.03625 0.02 0  0.004609375000000001 0.0182421875 0  0.003398437500000001 0.01943359375 0  0.001728307845744682 0.01894718251329787 0  0.004377805359085963 0.01656966216675735 0  0.04649673309852075 0.0153889662370871 0  0.03615513600614297 0.01592654988586041 0  0.03316985071935832 0.01598763605018279 0  0.03110111603888768 0.01529816275177977 0  0.01370614113484869 0.0138804542047638 0  0.04930041102671841 0.01842260568883502 0  0.07875000000000001 0.02 0  0.0745395359848485 0.01165101111925709 0  0.03860755698543604 0.01373741558556884 0  0.02605038706571737 0.01573944002207753 0  0.07559826163500957 0.01841729376139847 0  0.04437500000000001 0.01149157931286774 0  0.06874116707361365 0.01454618473032123 0  0.003761917372881356 0.0239307468220339 0  0.003984374999999999 0.01125 0  0.003768503289473684 0.01392539576480263 0  0.001796875 0.0111328125 0  0.003761917372881356 0.008930746822033899 0  0.005 0.00625 0  0.003761917372881355 0.0210692531779661 0  0.06633928571428571 0.01410714285714285 0  0.006484375 0.01125 0  0.08364120589325512 0.01657288979763549 0  0.03576267476503373 0.0184116442851204 0  0.07370875846579374 0.0137848203678562 0  0.06964285714285715 0.01758928571428571 0  0.05520833333333334 0.01833333333333333 0  0.06491071428571429 0.01839285714285714 0  0.0510098951944636 0.01559941474766356 0  0.01786087179886325 0.0115702210443714 0  0.01972197383235524 0.01160576093166696 0  0.01804697593127788 0.01433503795474974 0  0.001644074528704677 0.01642892723865279 0  0.00125 0.03 0  0.001497685185185185 0.001267746913580247 0  0.07315451164202422 0.01643443118912983 0  0.001233906745910645 0.0140625 0  0.01162635071030191 0.01362229857939618 0  0.01528023503083844 0.01845923557506155 0  0.06625 0.02 0  0.07695012019230771 0.01624387078484555 0  0.03139091092855769 0.01320776147621796 0  0.03857339107781042 0.01675295051810485 0  0.001754993120977522 0.02590789105493891 0  0.002288757784711197 0.00412546923654445 0  0.07914382119690884 0.01404430049871201 0  0.001391810103286306 0.01257390899021902 0  0.0419501201923077 0.01614675005432421 0  0.001484375 0.007018229166666667 0  0.001484375 0.02201822916666666 0  0.048
[...]
<PointData  Vectors="velocity"> 
<DataArray  type="Float64"  Name="velocity"  NumberOfComponents="3" format="ascii">4.9182769713097324e-06 3.6266468509110587e-20 0.0000000000000000e+00  1.0095500882426016e-19 -1.1625935856623578e-19 0.0000000000000000e+00  4.1876018510497142e-18 -2.3644894126454219e-04 0.0000000000000000e+00  -4.9630836753181822e-18 -2.3644894126454189e-04 0.0000000000000000e+00  -4.8803656140628841e-18 2.3644894126454197e-04 0.0000000000000000e+00  4.9010451293767105e-18 2.3644894126454173e-04 0.0000000000000000e+00  9.9090736878602028e-20 8.8514179331236989e-20 0.0000000000000000e+00  5.0510579221660695e-06 -3.6805037223387759e-20 0.0000000000000000e+00  1.1213327596299396e-20 -4.2933911967813000e-22 0.0000000000000000e+00  -1.2056631717641781e-21 9.3516339371426823e-20 0.0000000000000000e+00  6.3698500596862738e-22 -1.0354979637399302e-19 0.0000000000000000e+00  9.5662520985083629e-20 -3.6835799246468589e-22 0.0000000000000000e+00  8.0189762167287841e-20 4.7111807502272998e-22 0.0000000000000000e+00  9.5140443035289124e-20 2.8170151155568628e-22 0.0000000000000000e+00  7.6424680495085528e-20 -3.4065895218012275e-22 0.0000000000000000e+00  8.9571905393877936e-20 2.5215095873606701e-22 0.0000000000000000e+00  9.1920488774566555e-20 1.3297224319161148e-22 0.0000000000000000e+00  7.3725394015447922e-20 -1.8786779265324971e-22 0.0000000000000000e+00  1.1199015636277013e-19 -1.3973843143956840e-22 0.0000000000000000e+00  9.3793603883541830e-20 5.6590047545987632e-22 0.0000000000000000e+00  8.3981440381102273e-20 3.2805250148868075e-22 0.0000000000000000e+00  7.8876556591245199e-20 -2.1477187399040798e-22 0.0000000000000000e+00  7.7380760979549382e-20 -1.7103862290847815e-22 0.0000000000000000e+00  9.1206312776009817e-20 -1.0118606454292958e-21 0.0000000000000000e+00  8.4297815668008427e-20 3.7959504756355677e-22 0.0000000000000000e+00  8.4731668683795869e-20 1.4282146637091019e-22 0.0000000000000000e+00  9.8853526974720494e-20 -3.5184659121861711e-22 0.0000000000000000e+00  8.9974688528160082e-20 2.9025756637254980e-22 0.0000000000000000e+00  9.7406712620441905e-20 3.2555719458703845e-23 0.0000000000000000e+00  7.4786257244551825e-20 -1.8237091705190694e-22 0.0000000000000000e+00  8.4747166194799823e-20 2.9117636437994163e-22 0.0000000000000000e+00  8.9547938557428028e-20 5.1996797093101155e-22 0.0000000000000000e+00  7.8503463645397117e-20 -1.6682191660291390e-22 0.0000000000000000e+00  1.2541688594797121e-05 -1.8322384609409469e-09 0.0000000000000000e+00  1.2045113452027123e-05 2.2853071073102803e-23 0.0000000000000000e+00  7.6675506638539928e-20 5.1192287620156136e-23 0.0000000000000000e+00  1.2541456631738564e-05 4.2281241259002613e-09 0.0000000000000000e+00  9.2388651944183219e-20 -8.2909130159567214e-22 0.0000000000000000e+00  1.2531017669311000e-05 -6.0996119816047427e-09 0.0000000000000000e+00  1.2528623936263879e-05 -6.8313612765597540e-10 0.0000000000000000e+00  7.9483453967071682e-20 3.8411781844002403e-23 0.0000000000000000e+00  9.4182315367628812e-20 -1.7388100164500552e-21 0.0000000000000000e+00  1.2530240121005980e-05 -3.1944167722134272e-10 0.0000000000000000e+00  1.2504106562796846e-05 -4.7543470102637168e-08 0.0000000000000000e+00  8.0055155788656466e-20 -4.0041425073027836e-22 0.0000000000000000e+00  8.2786240337094151e-20 1.6342567350139981e-21 0.0000000000000000e+00  1.2527340611999421e-05 3.6884008870098133e-10 0.0000000000000000e+00  1.2540040448949613e-05 -1.2223678900592955e-09 0.0000000000000000e+00  1.2536656355288218e-05 -1.0551089266591590e-09 0.0000000000000000e+00  -6.3195702623863643e-21 1.1464795184675735e-19 0.0000000000000000e+00  9.4737425763061117e-06 -4.8474976689288728e-07 0.0000000000000000e+00  1.2525373956872504e-05 3.1059955410732547e-09 0.0000000000000000e+00  1.2522098628385264e-05 6.4468927688740194e-10 0.0000000000000000e+00  -9.5936991984049864e-21 -1.3043106395175978e-19 0.0000000000000000e+00  7.8840652133961172e-20 1.1990685759359490e-22 0.0000000000000000e+00  9.0888037427541668e-20 1.1399100415596267e-21 0.0000000000000000e+00  1.2531222076181228e-05 -4.2446705201936842e-09 0.0000000000000000e+00  1.2535274286243294e-05 3.3151059078767857e-09 0.0000000000000000e+00  1.2536752319544191e-05 -3.1975559741956080e-09 0.0000000000000000e+00  1.2342669764219640e-05 -3.9539152726671048e-07 0.0000000000000000e+00  1.2527839831535165e-05 -9.4263994528796641e-09 0.0000000000000000e+00  -5.3192870175185072e-20 1.6394120875209793e-20 0.0000000000000000e+00  5.0006769928969501e-21 -4.8075177957464242e-20 0.0000000000000000e+00  7.0914936344386037e-21 5.2700236958467595e-20 0.0000000000000000e+00  -6.4926016018959862e-20 1.5587964198384636e-20 0.0000000000000000e+00  1.2406965083297521e-05 -1.1989160468101692e-07 0.0000000000000000e+00  7.6618511321786420e-20 -2.2553719153037016e-22 0.0000000000000000e+00  1.2360087452030299e-05 7.1564944860676696e-07 0.0000000000000000e+00  1.2513402872747255e-05 3.6338800708818936e-10 0.0000000000000000e+00  1.2519003369467057e-05 1.0535131373658505e-09 0.0000000000000000e+00  1.2530215837716701e-05 -5.3842408692421114e-09 0.0000000000000000e+00  1.2393434494047464e-05 2.2923421082360742e-07 0.0000000000000000e+00  1.2528832748225621e-05 -2.5383977186878703e-09 0.0000000000000000e+00  8.3975344019926601e-20 -1.6228433157495965e-23 0.0000000000000000e+00  1.2518842251569410e-05 -1.1630369459882016e-10 0.0000000000000000e+00  1.0167530796315732e-19 1.5591457894572590e-21 0.0000000000000000e+00  1.2540022114025607e-05 -9.5511196540078786e-09 0.0000000000000000e+00  5.9973731122187575e-06 4.9042420698959284e-06 0.0000000000000000e+00  -2.6460514754614520e-19 -2.3644894126454314e-04 0.0000000000000000e+00  -4.2379290473988017e-19 2.3644894126454314e-04 0.0000000000000000e+00  6.2040673692010197e-06 -6.0898438445319680e-06 0.0000000000000000e+00  1.2514135364906436e-05 -1.7229974654615766e-08 0.0000000000000000e+00  1.2524793211677665e-05 1.1255454247017859e-08 0.0000000000000000e+00  8.1029118506333956e-20 7.6896052502164277e-22 0.0000000000000000e+00  1.2523720376248176e-05 -3.8652806016411151e-09 0.0000000000000000e+00  9.0992763925245928e-20 5.3037405515891011e-22 0.0000000000000000e+00  1.2526137792527380e-05 -3.9787639402257225e-09 0.0000000000000000e+00  9.4460754452030703e-20 1.8972446300909638e-22 0.0000000000000000e+00  7.8733100983078000e-20 -1.5565486250683090e-23 0.0000000000000000e+00  9.1211839482959908e-20 5.3620791518574276e-22 0.0000000000000000e+00  1.2530181350589995e-05 3.8774242182420532e-09 0.0000000000000000e+00  8.4408522158532982e-20 3.0078186338098814e-22 0.0000000000000000e+00  9.0755421627860220e-20 2.5130008938641406e-22 0.0000000000000000e+00  1.2522276179781967e-05 9.7252855928835165e-10 0.0000000000000000e+00  1.2534480868139071e-05 1.9984320596832351e-09 0.0000000000000000e+00  9.0565047440557050e-20 4.5422505092531700e-23 0.0000000000000000e+00  1.2532085050065587e-05 8.5982481489687399e-09 0.0000000000000000e+00  9.6815554155845764e-20 1.0297573485942890e-21 0.0000000000000000e+00  1.2537878139596439e-05 -1.5918452001111750e-08 0.0000000000000000e+00  7.9046028106362185e-20 2.7590031792114889e-23 0.0000000000000000e+00  1.2511484029741793e-05 8.4505439631395457e-09 0.0000000000000000e+00  9.2775172547758372e-20 2.9344373908071348e-24 0.0000000000000000e+00  9.2016204401765893e-20 8.0295585501851402e-22 0.0000000000000000e+00  8.7612076288822384e-20 1.5558558776465909e-21 0.0000000000000000e+00  9.7417627623211988e-20 -5.9758620876193147e-22 0.0000000000000000e+00  1.2532862099049174e-05 9.4911266741052940e-09 0.0000000000000000e+00  1.2535796825431002e-05 1.4819556533705041e-08 0.0000000000000000e+00  1.2532138318644600e-05 1.5499313117872113e-09 0.0000000000000000e+00  -2.5907999778291958e-06 -1.3760538417296088e-05 0.0000000000000000e+00  1.6968094678107026e-20 -1.9065039454614117e-19 0.0000000000000000e+00  1.2575697140007398e-05 -1.0521537933863463e-07 0.0000000000000000e+00  1.2549708457154815e-05 -3.4607124647147915e-08 0.0000000000000000e+00  1.2384444682670837e-05 3.2913259566255089e-08 0.0000000000000000e+00  1.2502284079145985e-05 -1.3430864071636843e-08 0.0000000000000000e+00  2.1063269894341645e-06 1.1215582128851637e-05 0.0000000000000000e+00  1.2513167343896870e-05 -2.0821369226539519e-11 0.0000000000000000e+00  1.2539771053783138e-05 6.5048602121799117e-12 0.0000000000000000e+00  3.6824224889854019e-20 1.0263567462731777e-19 0.0000000000000000e+00  -2.2900681756674753e-06 1.1928436821706556e-05 0.0000000000000000e+00  1.2511435259556376e-05 -8.5817836366702028e-09 0.0000000000000000e+00  2.0947780883144690e-06 -1.2883615284618723e-05 0.0000000000000000e+00  1.2533003721467369e-05 -2.0748939441730131e-09 0.0000000000000000e+00  7.9726749929535230e-20 -6.7518185730219323e-22 0.0000000000000000e+00  1.2508702902954386e-05 -3.8233795435036904e-08 0.0000000000000000e+00  1.2520599109198619e-05 1.5546567053797858e-10 0.0000000000000000e+00  1.2515154476036754e-05 5.7790127012027961e-08 0.0000000000000000e+00  1.2536087758173761e-05 -2.7866357223871731e-09 0.0000000000000000e+00  1.2530674707140485e-05 -1.4805237347197628e-08 0.0000000000000000e+00  1.2504346182052882e-05 -2.3002700013262235e-06 0.0000000000000000e+00  9.2002003491738405e-20 -1.2259294632227250e-21 0.0000000000000000e+00  1.2507873312067460e-05 -4.4425736545720657e-09 0.0000000000000000e+00  1.1638006989646690e-21 -1.1878532113761439e-19 0.0000000000000000e+00  9.9510637647479239e-22 1.0728165702951184e-19 0.0000000000000000e+00  -2.8345242346891714e-05 -3.1381126991162062e-05 0.0000000000000000e+00  -2.3097939206381978e-05 2.5829110569629298e-05 0.0000000000000000e+00  8.7384102766152335e-20 2.4381725102163039e-23 0.0000000000000000e+00  9.7914374411491480e-20 1.4282385524352464e-21 0.0000000000000000e+00  8.2732403209073651e-20 1.4208706553384652e-22 0.0000000000000000e+00  1.2508475280500040e-05 1.5244392214359022e-08 0.0000000000000000e+00  1.2513702252248056e-05 9.2102607026182978e-09 0.0000000000000000e+00  1.1383557287231549e-05 -3.1187152432893357e-21 0.0000000000000000e+00  8.3658924041966142e-20 -2.8614285185847792e-21 0.0000000000000000e+00  1.2513527553063187e-05 3.5569461991394694e-09 0.0000000000000000e+00  9.2472078067725667e-20 6.1253929520472779e-22 0.0000000000000000e+00  8.6695349706866217e-20 -1.5314912990613809e-22 0.0000000000000000e+00  1.2525786583340078e-05 -1.5883121890126837e-09 0.0000000000000000e+00  1.2539403144351735e-05 1.3366112966347919e-09 0.0000000000000000e+00  1.1370562641146751e-05 3.8458262656583139e-21 0.0000000000000000e+00  8.6084546354571782e-20 -1.1081693279594559e-21 0.0000000000000000e+00  4.6600585266562449e-06 -4.4375060840321878e-07 0.0000000000000000e+00  9.7750756853669480e-20 3.0136163828205275e-21 0.0000000000000000e+00  1.1120518154625866e-19 -4.3106221427939458e-21 0.0000000000000000e+00  1.2526334959612691e-05 -5.6158279793591283e-09 0.0000000000000000e+00  1.2483397176357243e-05 -1.4447029454496220e-08 0.0000000000000000e+00  1.2542824145545633e-05 8.5660261799445835e-11 0.0000000000000000e+00  1.2519162075218179e-05 7.8890076650901305e-09 0.0000000000000000e+00  9.0918940347794941e-20 9.5371701215419938e-23 0.0000000000000000e+00  1.0636676373412089e-19 3.0589041025370163e-22 0.0000000000000000e+00  8.4656465520967404e-20 -1.6507943773265363e-21 0.0000000000000000e+00  8.1524256473103497e-20 1.8880347227024726e-21 0.0000000000000000e+00  1.2516812410218032e-05 -2.0226655967441545e-09 0.0000000000000000e+00  1.2518356522677213e-05 4.7767096705894242e-09 0.0000000000000000e+00  1.2515435540306184e-05 -4.1453785177667476e-09 0.0000000000000000e+00  1.1355635100358828e-05 3.3930375826308796e-06 0.0000000000000000e+00  1.2532858964297334e-05 -3.6032787027896368e-09 0.0000000000000000e+00  1.2512403736142996e-05 4.0601132892443245e-09 0.0000000000000000e+00  1.2529784520759003e-05 3.6899387774878588e-09 0.0000000000000000e+00  1.2460064287137994e-05 1.4011874171344675e-08 0.0000000000000000e+00  1.2524083881255209e-05 9.4604519526900519e-10 0.0000000000000000e+00  1.2484462089173211e-05 3.4370687437807611e-09 0.0000000000000000e+00  1.2513355730148518e-05 2.4447921107088535e-09 0.0000000000000000e+00  1.2459971557868715e-05 9.1859821383504010e-10 0.0000000000000000e+00  1.2527996404124830e-05 -1.2023228430418167e-08 0.0000000000000000e+00  1.2490626397598380e-05 7.3471164177371117e-09 0.0000000000000000e+00  1.2479082437805177e-05 -4.6182702786828191e-09 0.0000000000000000e+00  1.2507803689689466e-05 5.1397755973182346e-09 0.0000000000000000e+00  1.2525468410932730e-05 1.5636764378022301e-08 0.0000000000000000e+00  1.2441051170553119e-05 -1.4483842324396960e-08 0.0000000000000000e+00  1.2439956164665657e-05 1.3543951200253009e-08 0.0000000000000000e+00  1.2460368421829675e-05 -1.9228041594220646e-09 0.0000000000000000e+00  1.2435042894850395e-05 -8.9201349693933510e-09 0.0000000000000000e+00  1.2466420910613054e-05 -7.6123887973612099e-09 0.0000000000000000e+00  1.2527220993470985e-05 -3.4115781821610566e-09 0.0000000000000000e+00  1.2534411776191870e-05 -2.3156975742154397e-09 0.0000000000000000e+00  1.2539911955197618e-05 2.9423201010890323e-09 0.0000000000000000e+00  1.2479104968983647e-05 -1.1824206169458417e-08 0.0000000000000000e+00  1.1484081596660976e-05 -6.9756683006140095e-07 0.0000000000000000e+00  1.2825267783179328e-05 -3.7881292396281198e-07 0.0000000000000000e+00  1.2452832589575795e-05 -1.1996790226721112e-07 0.0000000000000000e+00  1.2531741014190298e-05 -3.8227657403698131e-09 0.0000000000000000e+00  1.2538413994249138e-05 -8.4153577204435367e-09 0.0000000000000000e+00  1.2538737196447203e-05 -1.9856713978470419e-09 0.0000000000000000e+00  7.8871688932495075e-21 -3.1852028222738391e-20 0.0000000000000000e+00  1.1670577105931389e-20 2.5650001084478591e-20 0.0000000000000000e+00  1.2532041507858848e-05 6.0330769481825534e-09 0.0000000000000000e+00  1.2529297532741656e-05 -1.9544449281044712e-08 0.0000000000000000e+00  1.2540665707951483e-05 2.4342203823654267e-09 0.0000000000000000e+00  1.2443623386452233e-05 5.6279173058148184e-09 0.0000000000000000e+00  1.2467946309371054e-05 6.6990184088556883e-09 0.0000000000000000e+00  1.2536410213639858e-05 -1.6856982344022666e-07 0.0000000000000000e+00  1.2377308369209904e-05 -7.7800932210213994e-07 0.0000000000000000e+00  1.2212016134055827e-05 1.3376536957957545e-08 0.0000000000000000e+00  1.2450769864373461e-05 1.0862782394541196e-08 0.0000000000000000e+00  1.2453811760213260e-05 -1.0825490037614628e-09 0.0000000000000000e+00  1.1970475845357934e-05 5.7629781694983416e-09 0.0000000000000000e+00  1.2490827585837571e-05 1.6585031214296014e-07 0.0000000000000000e+00  1.2528993716951750e-05 -1.7416152983616681e-09 0.0000000000000000e+00  1.2405787266296584e-05 1.4727094722154496e-08 0.0000000000000000e+00  1.0687304358647316e-07 -1.4723944559626283e-05 0.0000000000000000e+00  1.2531133826498305e-05 7.7459820550153669e-09 0.0000000000000000e+00  1.4899205949595477e-07 1.2796729674430728e-05 0.0000000000000000e+00  -5.0166461364095073e-19 -5.4233502958094711e-19 0.0000000000000000e+00  -9.8712104321956251e-21 7.1708103369513053e-20 0.0000000000000000e+00  5.0188903184582870e-21 8.5994188105153549e-20 0.0000000000000000e+00  4.3077483948018714e-21 -8.6615709886542787e-20 0.0000000000000000e+00  -9.6646276753101746e-21 -9.0203191636228302e-20 0.0000000000000000e+00  -5.3084172882255766e-19 4.4973733527419515e-19 0.0000000000000000e+00  1.2489457811160816e-05 -8.6720300938472531e-09 0.0000000000000000e+00  1.2046981659661229e-05 -3.4819803863084673e-09 0.0000000000000000e+00  1.2046878050177808e-05 -2.8643289388780155e-08 0.0000000000000000e+00  1.2034586928773534e-05 4.1553109507086188e-09 0.0000000000000000e+00  1.2040745381306360e-05 -1.6874191750246950e-09 0.0000000000000000e+00  1.2030531706187024e-05 1.3334082977881980e-08 0.0000000000000000e+00  1.2424809479148686e-05 1.6466392799061686e-08 0.0000000000000000e+00  1.2478534527364797e-05 1.8164231279914673e-07 0.0000000000000000e+00  1.2428830377561839e-05 -2.1410075443164948e-09 0.0000000000000000e+00  1.2515687973905800e-05 -6.9288298839917787e-09 0.0000000000000000e+00  1.2533934132720390e-05 3.5239254403409091e-09 0.0000000000000000e+00  1.2538001719961338e-05 -2.7590640373428250e-09 0.0000000000000000e+00  -2.2242714799437192e-06 1.8461833559654672e-05 0.0000000000000000e+00  -4.5500985575587144e-06 -1.9195758300961708e-05 0.0000000000000000e+00  1.2069536578961951e-05 -4.1085775664673159e-08 0.0000000000000000e+00  1.2403413039484376e-05 1.5528092708880611e-08 0.0000000000000000e+00  1.2539394821751845e-05 -2.5179207067218253e-09 0.0000000000000000e+00  1.2536701418723904e-05 -2.8614512726380427e-09 0.0000000000000000e+00  8.7256830444589480e-20 1.0097139610403879e-21 0.0000000000000000e+00  1.1091775667357938e-05 8.1497913900710476e-07 0.0000000000000000e+00  5.1345575126369113e-05 5.9867790904088350e-05 0.0000000000000000e+00  5.2000417732279361e-05 -6.3762892455555546e-05 0.0000000000000000e+00  1.2544037349710121e-05 -2.0138424810993417e-09 0.0000000000000000e+00  1.1944211286810625e-05 1.2013542459647912e-08 0.0000000000000000e+00  8.5870383838160866e-20 2.3726580054121734e-22 0.0000000000000000e+00  1.1998392816311823e-05 -1.9350741160254513e-08 0.0000000000000000e+00  1.2544156804754398e-05 2.2125024381989284e-09 0.0000000000000000e+00  1.2372986420780244e-05 9.9572823168456702e-07 0.0000000000000000e+00  1.2522615767526722e-05 5.1160241480336942e-10 0.0000000000000000e+00  8.8240067942538121e-20 -8.7566626431717073e-22 0.0000000000000000e+00  1.2537502413224353e-05 5.0339305335750286e-09 0.0000000000000000e+00  1.2532692439610538e-05 -5.5884021882161440e-09 0.0000000000000000e+00  1.2429505268280619e-05 -4.2497968021916173e-09 0.0000000000000000e+00  1.2463139517821494e-05 2.3786846015596847e-09 0.0000000000000000e+00  1.2432224023981290e-05 -9.3850220746826565e-09 0.0000000000000000e+00  8.9817484339297322e-20 7.3295057315840883e-22 0.0000000000000000e+00  1.2470446342680165e-05 -3.6359238204516448e-09 0.0000000000000000e+00  1.2538805425876122e-05 9.9838293517575086e-09 0.0000000000000000e+00  1.2061865842307347e-05 2.8246146092710404e-08 0.0000000000000000e+00  1.2536825894598245e-05 -5.4128595536717945e-10 0.0000000000000000e+00  1.2537990592046352e-05 -6.1167028356674963e-08 0.0000000000000000e+00  1.2527471386996977e-05 1.7378221291217963e-09 0.0000000000000000e+00  1.2529075188177261e-05 -2.9402453479289170e-09 0.0000000000000000e+00  1.2092441973711844e-05 -1.8955156555334374e-07 0.0000000000000000e+00  1.2462236150679954e-05 7.5880080454336734e-09 0.0000000000000000e+00  1.2457326172135485e-05 -1.1166247291747770e-08 0.0000000000000000e+00  1.2444881411056588e-05 -8.0402128766216487e-09 0.0000000000000000e+00  1.2467216994137407e-05 -1.9985487242620544e-08 0.0000000000000000e+00  1.2526644027075671e-05 3.8992328278311729e-09 0.0000000000000000e+00  9.4348314910388325e-20 -1.0870534741333846e-21 0.0000000000000000e+00  1.1589631636704878e-05 -6.6934581330530870e-06 0.0000000000000000e+00  6.8434628415146462e-06 -1.2603231503524991e-05 0.0000000000000000e+00  2.9190010309558763e-06 -9.4709224806929658e-06 0.0000000000000000e+00  8.9604366541379393e-06 -3.1991049405625842e-06 0.0000000000000000e+00  1.2540670707428007e-05 6.5567054042661819e-10 0.0000000000000000e+00  1.2530398747825178e-05 -6.6127046105419210e-09 0.0000000000000000e+00  1.2528847711853924e-05 1.0657464970140661e-09 0.0000000000000000e+00  1.2528567019896460e-05 -2.3926364991810724e-09 0.0000000000000000e+00  1.2512350266689418e-05 -2.6083888834131416e-08 0.0000000000000000e+00  1.2455097113055509e-05 2.7740417819503036e-08 0.0000000000000000e+00  9.6184926025401345e-20 1.8848948191641673e-22 0.0000000000000000e+00  1.2446214599253999e-05 1.7361971532812957e-08 0.0000000000000000e+00  1.2528995144575435e-05 -3.7103389826361885e-09 0.0000000000000000e+00  1.2528627576610372e-05 7.1173791430534515e-11 0.0000000000000000e+00  1.2443301412744586e-05 1.1160988963725776e-08 0.00000000