<?xml version="1.0"?>
<VTKFile type="UnstructuredGrid"  version="0.1"  >
<UnstructuredGrid>
<Piece  NumberOfPoints="1079" NumberOfCells="1944">
<Points>
<DataArray  type="Float64"  NumberOfComponents="3"  format="ascii">0.08500000000000001 0.02 0  0.005 0.02 0  0.005 0.03 0  0 0.03 0  0 0 0  0.005 0 0  0.005 0.01 0  0.08500000000000001 0.01 0  0 0.015 0  0 0.0075 0  0 0.0225 0  0.04500000000000001 0.02 0  0.04500000000000001 0.01 0  0.025 0.01 0  0.025 0.02 0  0.065 0.02 0  0.065 0.01 0  0.035 0.02 0  0.035 0.01 0  0.07500000000000001 0.02 0  0.07500000000000001 0.01 0  0.015 0.02 0  0.015 0.01 0  0.05500000000000001 0.01 0  0.05500000000000001 0.02 0  0.07000000000000001 0.01 0  0.07000000000000001 0.02 0  0.05 0.01 0  0.03 0.01 0  0.03 0.02 0  0.04000000000000001 0.01 0  0.01 0.01 0  0.02 0.02 0  0.06 0.015 0  0.08500000000000001 0.015 0  0.05 0.02 0  0.07250000000000001 0.015 0  0.04000000000000001 0.02 0  0.03750000000000001 0.015 0  0.0525 0.015 0  0.02 0.01 0  0.01 0.02 0  0.0275 0.015 0  0.0125 0.015 0  0.08000000000000002 0.01 0  0.08000000000000002 0.02 0  0.0325 0.014375 0  0.04291666666666667 0.015 0  0.065 0.015 0  0.005 0.005 0  0.005 0.015 0  0.02208333333333334 0.015 0  0.07791666666666668 0.015 0  0.005 0.025 0  0.06 0.01 0  0.06 0.02 0  0.01729166666666667 0.01572916666666667 0  0.04770833333333334 0.01427083333333334 0  0.06875000000000001 0.01625 0  0.008750000000000001 0.01625 0  0.05625000000000001 0.01625 0  0 0.00375 0  0 0.01875 0  0 0.01125 0  0 0.02625 0  0.08145833333333334 0.01354166666666667 0  0.0675 0.01 0  0.0075 0.0125 0  0.0625 0.0175 0  0.0575 0.0125 0  0.0625 0.0125 0  0.08207465277777778 0.01707465277777778 0  0.06767857142857144 0.01321428571428571 0  0.0175 0.01 0  0.01875 0.01291382575757576 0  0.0475 0.02 0  0.04564168086314595 0.01679860519591141 0  0.00296875 0.0125 0  0.0025 0.03 0  0.0025 0 0  0.00296875 0.0175 0  0.01521990740740741 0.0132349537037037 0  0.0497800925925926 0.0167650462962963 0  0.0325 0.02 0  0.03474264705882353 0.01674632352941176 0  0.03750000000000001 0.02 0  0.03025735294117647 0.01674632352941176 0  0.0275 0.02 0  0.0525 0.02 0  0.0125 0.01 0  0.04020833333333334 0.01322916666666667 0  0.03750000000000001 0.01 0  0.0225 0.02 0  0.02479166666666667 0.01677083333333333 0  0.07520833333333335 0.01322916666666667 0  0.07250000000000001 0.01 0  0.07520833333333335 0.01677083333333334 0  0.07250000000000001 0.02 0  0.04020833333333334 0.01677083333333333 0  0.0225 0.01 0  0.02375 0.01262152777777778 0  0.04250000000000001 0.02 0  0.04250000000000001 0.01 0  0.07750000000000001 0.01 0  0.07750000000000001 0.02 0  0.05036151960784314 0.01294424019607843 0  0.0705560064935065 0.01284699675324675 0  0.05458333333333334 0.01291666666666666 0  0.0021875 0.024375 0  0.005 0.0275 0  0.01125 0.0175 0  0.01463848039215686 0.01705575980392157 0  0.01 0.01375 0  0.03625 0.0125 0  0.0021875 0.009375 0  0.05375000000000001 0.0175 0  0.07125000000000001 0.0175 0  0.005 0.0025 0  0.0021875 0.005625 0  0.02655220103578155 0.01234889948210923 0  0.002187499999999999 0.020625 0  0.02979166666666667 0.01302083333333333 0  0.0525 0.01 0  0.07895833333333334 0.0125 0  0.01994277885235332 0.01704213007736944 0  0.07934656179076068 0.01733823814273861 0  0.04505722114764669 0.01295786992263056 0  0.06625 0.0175 0  0.006250000000000001 0.0175 0  0.05750000000000001 0.02 0  0.05875000000000001 0.0175 0  0.005 0.0225 0  0.005 0.0075 0  0.002375 0.027375 0  0.002375 0.002625000000000001 0  0.0475 0.01 0  0.0175 0.02 0  0.0325 0.01 0  0.03375 0.0121875 0  0.04261299435028249 0.01749205508474576 0  0.08500000000000001 0.0125 0  0.08250000000000002 0.01 0  0.02121963399965531 0.01224824108143494 0  0.0675 0.02 0  0.0125 0.02 0  0.02720152243589744 0.0175 0  0.03715165441176471 0.0175 0  0.08500000000000001 0.0175 0  0.0275 0.01 0  0.0025 0.0149560546875 0  0.0075 0.01 0  0.0075 0.02 0  0.06526785714285716 0.0125 0  0.01281031447005516 0.0125 0  0.0625 0.015 0  0.06 0.0125 0  0.05750000000000001 0.01 0  0.0625 0.02 0  0.0625 0.01 0  0.08250000000000002 0.02 0  0.04260103740101855 0.01252623201412851 0  0.02240052247582197 0.01750164767101344 0  0.07293583459427785 0.01238479732953041 0  0.005234374999999999 0.012265625 0  0.03528131980640358 0.01454684009679821 0  0.0325 0.01760027210036557 0  0.02532593822924343 0.01428227733767297 0  0.08009952069819683 0.01527145502895417 0  0.01987282359856536 0.01482587683689801 0  0.04828232595121382 0.01210233572595705 0  0.01671767404878618 0.01789766427404295 0  0.05125 0.01829007549029352 0  0.05247215456215357 0.01288882122882024 0  0.07338729919678716 0.01799385040160642 0  0.03838729919678716 0.01200614959839357 0  0.07717482110586968 0.01780301674207099 0  0.04771860040890012 0.01773306039388322 0  0.03125 0.01160380747126437 0  0.06875000000000001 0.01154265873015873 0  0.07625000000000001 0.01154065860215054 0  0.01625 0.01153997817696946 0  0.068125 0.018125 0  0.05437500000000001 0.015625 0  0.066875 0.015625 0  0.07039794950204951 0.01494384850614853 0  0.05687500000000001 0.018125 0  0.006875 0.015625 0  0.008749999999999999 0.01833333333333333 0  0.010625 0.015625 0  0.05625 0.01416666666666667 0  0.05812500000000001 0.015625 0  0.0449088595298192 0.01494528408816316 0  0 0.016875 0  0 0.013125 0  0.04962452342047931 0.01478673066448802 0  0.0153754765795207 0.01521326933551198 0  0.0771774565913315 0.01322498191305479 0  0.01857756431135545 0.01840228599899994 0  0.04642243568864456 0.01159771400100006 0  0.08125000000000002 0.01155637254901961 0  0.08317650804863432 0.0118234919513657 0  0.08288217288011697 0.01511353252923977 0  0.02837253504384828 0.0117177464035174 0  0.03896057962520807 0.01831163685754031 0  0.01125 0.0114244162490927 0  0.00935910490099115 0.0119067901980177 0  0.02946078431372549 0.01495404411764706 0  0.02875 0.0185829434466942 0  0.002968749999999999 0.0225 0  0.064375 0.016875 0  0.00296875 0.0075 0  0 0.001875 0  0 0.005625 0  0 0.009375 0  0 0.020625 0  0 0.024375 0  0 0.028125 0  0.06062500000000001 0.01812500000000001 0  0.008303571428571429 0.01446428571428572 0  0.01375 0.01865917058160413 0  0.05137790313978056 0.01143372888932909 0  0.04125000000000001 0.01131513063942604 0  0.04101690263896279 0.01844430285842771 0  0.02399563533148224 0.01844349395710867 0  0.08125000000000002 0.01868815426145731 0  0.05354684380692146 0.01145463537600848 0  0.01699195823639423 0.01315138909884649 0  0.07598357371794873 0.015 0  0.04098357371794872 0.015 0  0.003744047619047619 0.00375 0  0.003344630281690141 0.02580853873239437 0  0.04625 0.0187354532243972 0  0.06388392857142858 0.01138392857142858 0  0.06375 0.01375 0  0.05875 0.01375 0  0.06375 0.02 0  0.00622802734375 0.01372802734375 0  0.003630681818181818 0.001369318181818182 0  0.003630681818181818 0.02863068181818182 0  0.06125 0.01625 0  0.06125 0.01125 0  0.05625000000000001 0.01 0  0.05875 0.01125 0  0.06125 0.01375 0  0.08337864763241221 0.0183786476324122 0  0.05213634138653413 0.01674432930673294 0  0.04375000000000001 0.01 0  0.07424178685897437 0.01529258578431373 0  0.03924178685897436 0.01529258578431372 0  0.03410139294454583 0.01843406022904556 0  0.03089860705545417 0.01843406022904556 0  0.02094160484316717 0.01850229584291991 0  0.04375000000000001 0.02 0  0.04437042160883325 0.01820701498672512 0  0.04816311705429156 0.01600061344661149 0  0.07151224904251052 0.0114127410511319 0  0.04395528506193162 0.01639387970349481 0  0.0128750358694518 0.0167500179347259 0  0.02855808448399799 0.01642839899839741 0  0.02812690373330794 0.01340955081400569 0  0.08358500641945087 0.01351822349116885 0  0.05590277777777778 0.01173611111111111 0  0.06683110430364615 0.01164926404662283 0  0.02573206694914602 0.01842532451809762 0  0.01438126661842046 0.01166701193099454 0  0.02384283211216029 0.01526549696571563 0  0.03625 0.02 0  0.004609375000000001 0.0182421875 0  0.003398437500000001 0.01943359375 0  0.001728307845744682 0.01894718251329787 0  0.004377805359085963 0.01656966216675735 0  0.04649673309852075 0.0153889662370871 0  0.03615513600614297 0.01592654988586041 0  0.03316985071935832 0.01598763605018279 0  0.03110111603888768 0.01529816275177977 0  0.01370614113484869 0.0138804542047638 0  0.04930041102671841 0.01842260568883502 0  0.07875000000000001 0.02 0  0.0745395359848485 0.01165101111925709 0  0.03860755698543604 0.01373741558556884 0  0.02605038706571737 0.01573944002207753 0  0.07559826163500957 0.01841729376139847 0  0.04437500000000001 0.01149157931286774 0  0.06874116707361365 0.01454618473032123 0  0.003761917372881356 0.0239307468220339 0  0.003984374999999999 0.01125 0  0.003768503289473684 0.01392539576480263 0  0.001796875 0.0111328125 0  0.003761917372881356 0.008930746822033899 0  0.005 0.00625 0  0.003761917372881355 0.0210692531779661 0  0.06633928571428571 0.01410714285714285 0  0.006484375 0.01125 0  0.08364120589325512 0.01657288979763549 0  0.03576267476503373 0.0184116442851204 0  0.07370875846579374 0.0137848203678562 0  0.06964285714285715 0.01758928571428571 0  0.05520833333333334 0.01833333333333333 0  0.06491071428571429 0.01839285714285714 0  0.0510098951944636 0.01559941474766356 0  0.01786087179886325 0.0115702210443714 0  0.01972197383235524 0.01160576093166696 0  0.01804697593127788 0.01433503795474974 0  0.001644074528704677 0.01642892723865279 0  0.00125 0.03 0  0.001497685185185185 0.001267746913580247 0  0.07315451164202422 0.01643443118912983 0  0.001233906745910645 0.0140625 0  0.01162635071030191 0.01362229857939618 0  0.01528023503083844 0.01845923557506155 0  0.06625 0.02 0  0.07695012019230771 0.01624387078484555 0  0.03139091092855769 0.01320776147621796 0  0.03857339107781042 0.01675295051810485 0  0.001754993120977522 0.02590789105493891 0  0.002288757784711197 0.00412546923654445 0  0.07914382119690884 0.01404430049871201 0  0.001391810103286306 0.01257390899021902 0  0.0419501201923077 0.01614675005432421 0  0.001484375 0.007018229166666667 0  0.001484375 0.02201822916666666 0  0.048
[...]
<PointData  Vectors="velocity"> 
<DataArray  type="Float64"  Name="velocity"  NumberOfComponents="3" format="ascii">1.5814196742786398e-05 1.1827442883151382e-19 0.0000000000000000e+00  3.3794868202163687e-19 -3.6014446410356639e-19 0.0000000000000000e+00  1.3214210285534653e-17 -7.2208090183855191e-04 0.0000000000000000e+00  -1.4723814903443939e-17 -7.2208090183855072e-04 0.0000000000000000e+00  -1.4889251025954560e-17 7.2208090183855083e-04 0.0000000000000000e+00  1.3276248831476153e-17 7.2208090183855007e-04 0.0000000000000000e+00  3.1834693116022080e-19 2.9636255111719194e-19 0.0000000000000000e+00  1.6239849771120832e-05 -1.1857550453869722e-19 0.0000000000000000e+00  3.5559381206282768e-20 -4.0408387734412238e-22 0.0000000000000000e+00  -3.8401088458906590e-21 2.8461019932443346e-19 0.0000000000000000e+00  2.1371181448001534e-21 -3.2811498086404833e-19 0.0000000000000000e+00  3.0581265270851005e-19 -1.0770127414728920e-21 0.0000000000000000e+00  2.6145569360620107e-19 1.6086671961482660e-21 0.0000000000000000e+00  3.1279049765026561e-19 8.9262045227886134e-22 0.0000000000000000e+00  2.5894651109702634e-19 -1.0518180607025124e-21 0.0000000000000000e+00  2.9436776420523263e-19 8.2462398231599768e-22 0.0000000000000000e+00  2.8819796194533525e-19 4.0252580940251143e-22 0.0000000000000000e+00  2.3309388270362679e-19 -5.6802274315824450e-22 0.0000000000000000e+00  3.5655749797878591e-19 -4.0804967621560082e-22 0.0000000000000000e+00  2.8072246246478245e-19 1.8459540522463818e-21 0.0000000000000000e+00  2.6531073657933812e-19 1.0245483529976817e-21 0.0000000000000000e+00  2.5426090007060219e-19 -6.4522183241000212e-22 0.0000000000000000e+00  2.3461598500378715e-19 -4.8403501070742344e-22 0.0000000000000000e+00  2.8681230432707491e-19 -3.3588059589377358e-21 0.0000000000000000e+00  2.6596096510150840e-19 1.2032973075731061e-21 0.0000000000000000e+00  2.6231996058271049e-19 4.3526542132086923e-22 0.0000000000000000e+00  3.0768557592131653e-19 -1.0870461071438881e-21 0.0000000000000000e+00  2.9569459631077090e-19 9.8422551033975159e-22 0.0000000000000000e+00  2.9343555138778398e-19 1.6006562067196057e-22 0.0000000000000000e+00  2.3633909449613220e-19 -6.3758914701817541e-22 0.0000000000000000e+00  2.6919326656044918e-19 9.2529848870328866e-22 0.0000000000000000e+00  2.7977680262807243e-19 1.6185184840616213e-21 0.0000000000000000e+00  2.5294829359003062e-19 -5.5213170549007560e-22 0.0000000000000000e+00  4.0265355513759756e-05 -5.8689626251382024e-09 0.0000000000000000e+00  3.8668634055539670e-05 2.2640819952517037e-23 0.0000000000000000e+00  2.3695822232174460e-19 1.7581242029715379e-22 0.0000000000000000e+00  4.0264600829053163e-05 1.3575053715767692e-08 0.0000000000000000e+00  2.9113577740987851e-19 -2.7935974609075413e-21 0.0000000000000000e+00  4.0231096137850002e-05 -1.9579357511330345e-08 0.0000000000000000e+00  4.0223403170859447e-05 -2.2008622268402780e-09 0.0000000000000000e+00  2.6456635391896715e-19 1.1941091586326774e-22 0.0000000000000000e+00  3.0931455152315990e-19 -5.6617822807349233e-21 0.0000000000000000e+00  4.0228592440618443e-05 -9.5155330532090950e-10 0.0000000000000000e+00  4.0144698310564301e-05 -1.4093256196530350e-07 0.0000000000000000e+00  2.5523119779114087e-19 -1.1423922427175089e-21 0.0000000000000000e+00  2.7173139688256742e-19 5.0949542300001675e-21 0.0000000000000000e+00  4.0219294196251340e-05 1.2007177465450182e-09 0.0000000000000000e+00  4.0260070260170312e-05 -3.9203509087179748e-09 0.0000000000000000e+00  4.0249178603631288e-05 -3.3888341252681453e-09 0.0000000000000000e+00  -1.9804637515195065e-20 3.6145951485019334e-19 0.0000000000000000e+00  3.0417448833409197e-05 -1.4477796253931315e-06 0.0000000000000000e+00  4.0212971156817352e-05 1.0456874025977075e-08 0.0000000000000000e+00  4.0202353589241307e-05 2.0702413174269134e-09 0.0000000000000000e+00  -2.8368538638477559e-20 -4.2186113613018965e-19 0.0000000000000000e+00  2.6237135054416587e-19 5.5788243217230463e-22 0.0000000000000000e+00  2.9858350672492232e-19 3.6519666520200144e-21 0.0000000000000000e+00  4.0231086915004553e-05 -1.1345776716828345e-08 0.0000000000000000e+00  4.0244744850756441e-05 1.0644640747899812e-08 0.0000000000000000e+00  4.0249505505752153e-05 -1.0255519296419871e-08 0.0000000000000000e+00  3.9611654381840812e-05 -1.2327722993776019e-06 0.0000000000000000e+00  4.0220913921989754e-05 -3.0282780501368651e-08 0.0000000000000000e+00  -1.6672776216034640e-19 6.5063574830506364e-20 0.0000000000000000e+00  1.6082291673866016e-20 -1.6666061691920939e-19 0.0000000000000000e+00  2.1742447488329528e-20 1.7739533314981443e-19 0.0000000000000000e+00  -2.0135645496628960e-19 4.2902653757021934e-20 0.0000000000000000e+00  3.9832395060737197e-05 -3.8528111341902273e-07 0.0000000000000000e+00  2.4955743687667574e-19 -7.4395206305752439e-22 0.0000000000000000e+00  3.9725746778233066e-05 2.3404024555418806e-06 0.0000000000000000e+00  4.0174588927341985e-05 1.3119654446675309e-09 0.0000000000000000e+00  4.0192589874814288e-05 3.3245269698366540e-09 0.0000000000000000e+00  4.0228545621963126e-05 -1.7368049450509388e-08 0.0000000000000000e+00  3.9788876703518199e-05 7.3652427314244534e-07 0.0000000000000000e+00  4.0224064998429734e-05 -8.1417573591319538e-09 0.0000000000000000e+00  2.6354289566824907e-19 -4.5761119535618337e-23 0.0000000000000000e+00  4.0192912114050735e-05 7.2734673087747773e-10 0.0000000000000000e+00  3.1905010429818330e-19 4.8790178423861525e-21 0.0000000000000000e+00  4.0260018797335241e-05 -3.0632365066559975e-08 0.0000000000000000e+00  1.9293077166396140e-05 1.5911401347610854e-05 0.0000000000000000e+00  -7.9727699653532478e-19 -7.2208090183855430e-04 0.0000000000000000e+00  -1.2495658493867838e-18 7.2208090183855462e-04 0.0000000000000000e+00  1.9885327127142703e-05 -1.9388724076001568e-05 0.0000000000000000e+00  4.0179580452324697e-05 -5.1387265484180845e-08 0.0000000000000000e+00  4.0211066198087524e-05 3.6114832773937447e-08 0.0000000000000000e+00  2.8169887152516433e-19 2.4647484338581169e-21 0.0000000000000000e+00  4.0207656660439664e-05 -1.2428568146508552e-08 0.0000000000000000e+00  2.9074024772843175e-19 1.8056351847446738e-21 0.0000000000000000e+00  4.0215425096907525e-05 -1.2750849528280115e-08 0.0000000000000000e+00  3.3049954757975935e-19 6.0323524078573760e-22 0.0000000000000000e+00  2.7128559340909495e-19 -4.4312773388553354e-23 0.0000000000000000e+00  3.0589733756833952e-19 1.6934992249696000e-21 0.0000000000000000e+00  4.0228398184487059e-05 1.2455040963663634e-08 0.0000000000000000e+00  2.6621864696667006e-19 9.0553380028864566e-22 0.0000000000000000e+00  2.9051856977186259e-19 7.8088829125281618e-22 0.0000000000000000e+00  4.0202923528924029e-05 3.2654598831937215e-09 0.0000000000000000e+00  4.0242191212934333e-05 6.4350749806190227e-09 0.0000000000000000e+00  2.9884891853887817e-19 1.2928867765928834e-22 0.0000000000000000e+00  4.0234539182605012e-05 2.7597250101466933e-08 0.0000000000000000e+00  3.0999708271424376e-19 3.3115547838180730e-21 0.0000000000000000e+00  4.0253105093793811e-05 -5.1137149616825891e-08 0.0000000000000000e+00  2.5607306443581968e-19 7.7486897799131182e-23 0.0000000000000000e+00  4.0168631568835403e-05 2.7270651704246914e-08 0.0000000000000000e+00  2.9597909298637085e-19 -2.3475499126457079e-23 0.0000000000000000e+00  2.6409835120635506e-19 2.4476046251673629e-21 0.0000000000000000e+00  2.9118426094442781e-19 4.8621437540203110e-21 0.0000000000000000e+00  3.1349686595688723e-19 -1.8772307017152128e-21 0.0000000000000000e+00  4.0236973566192927e-05 3.0442958115118425e-08 0.0000000000000000e+00  4.0246442936639644e-05 4.7570183036266606e-08 0.0000000000000000e+00  4.0234673136174318e-05 5.0134406896739585e-09 0.0000000000000000e+00  -7.9352227680328491e-06 -4.4024080717560501e-05 0.0000000000000000e+00  6.0904392322036034e-20 -5.7713788027488079e-19 0.0000000000000000e+00  4.0361136429531946e-05 -3.2531730659994499e-07 0.0000000000000000e+00  4.0287497053722660e-05 -1.0670331010717149e-07 0.0000000000000000e+00  3.9771796619178733e-05 1.2969800238225737e-07 0.0000000000000000e+00  4.0139041236218450e-05 -4.3186253040358207e-08 0.0000000000000000e+00  6.8037240839821838e-06 3.6239959288956481e-05 0.0000000000000000e+00  4.0173699452028357e-05 -5.1940642293363533e-11 0.0000000000000000e+00  4.0259175467307901e-05 1.7976613430464022e-10 0.0000000000000000e+00  1.0782164008737078e-19 3.3933242652048351e-19 0.0000000000000000e+00  -7.0663542000472116e-06 3.8599583928207668e-05 0.0000000000000000e+00  4.0168197955287977e-05 -2.7626432189641102e-08 0.0000000000000000e+00  6.7310965993573851e-06 -4.1139043571949590e-05 0.0000000000000000e+00  4.0237483389871535e-05 -6.5488277712540321e-09 0.0000000000000000e+00  2.6469194382875276e-19 -2.2412446076870361e-21 0.0000000000000000e+00  4.0159843060101933e-05 -1.2311390722565260e-07 0.0000000000000000e+00  4.0197051737644491e-05 1.2305868832675174e-09 0.0000000000000000e+00  4.0180126987198133e-05 1.8574807785097704e-07 0.0000000000000000e+00  4.0247361024960371e-05 -8.9115535562372874e-09 0.0000000000000000e+00  4.0229944125962987e-05 -4.7567595940939393e-08 0.0000000000000000e+00  4.0090081027873780e-05 -7.3114641814787445e-06 0.0000000000000000e+00  3.0550187097299569e-19 -4.0413987557740446e-21 0.0000000000000000e+00  4.0156605355137850e-05 -1.4033893209547760e-08 0.0000000000000000e+00  4.2650596811528634e-21 -3.7623432327668884e-19 0.0000000000000000e+00  3.4240384243527183e-21 3.1616791178408311e-19 0.0000000000000000e+00  -8.6895119175682331e-05 -9.9393349778151432e-05 0.0000000000000000e+00  -7.1249898044690527e-05 8.2388330174253970e-05 0.0000000000000000e+00  2.7371105205059353e-19 9.5720846697380817e-23 0.0000000000000000e+00  3.1242907254964457e-19 4.5571045875801858e-21 0.0000000000000000e+00  2.7143007351044194e-19 5.7803468456257378e-22 0.0000000000000000e+00  4.0158643971392823e-05 4.8900449848806378e-08 0.0000000000000000e+00  4.0175376853101243e-05 2.9696580580731708e-08 0.0000000000000000e+00  3.6546734470518007e-05 -9.6313728816134395e-21 0.0000000000000000e+00  2.7444208008888892e-19 -9.5487224659180099e-21 0.0000000000000000e+00  4.0175388188288135e-05 1.1773781681135483e-08 0.0000000000000000e+00  2.9613262811113454e-19 1.7953427725149213e-21 0.0000000000000000e+00  2.7278664175281476e-19 -5.5219967966156830e-22 0.0000000000000000e+00  4.0214190506648669e-05 -5.0132527575692009e-09 0.0000000000000000e+00  4.0258060699471558e-05 4.2247680768691882e-09 0.0000000000000000e+00  3.6505072792069447e-05 1.2954910699764999e-20 0.0000000000000000e+00  2.8244950421692457e-19 -3.4914910784567084e-21 0.0000000000000000e+00  1.4962284411363255e-05 -1.2728780275573006e-06 0.0000000000000000e+00  2.9632067996897116e-19 9.5065898621702101e-21 0.0000000000000000e+00  3.5437864870838092e-19 -1.2600567181570061e-20 0.0000000000000000e+00  4.0216034482261477e-05 -1.8079521033920993e-08 0.0000000000000000e+00  4.0085844725254169e-05 -3.9581656699718757e-08 0.0000000000000000e+00  4.0268983260820063e-05 2.7090414446668210e-10 0.0000000000000000e+00  4.0193080273820482e-05 2.5223737007460150e-08 0.0000000000000000e+00  2.9729801802720383e-19 2.7949840667198426e-22 0.0000000000000000e+00  3.5064353837868815e-19 9.5348977997114031e-22 0.0000000000000000e+00  2.7072916115949727e-19 -5.4808718443555830e-21 0.0000000000000000e+00  2.6141500098823438e-19 5.7592271580979651e-21 0.0000000000000000e+00  4.0185264776179046e-05 -6.5761353333305039e-09 0.0000000000000000e+00  4.0190108778037521e-05 1.5683511164848477e-08 0.0000000000000000e+00  4.0180933364302024e-05 -1.3413480525065164e-08 0.0000000000000000e+00  3.6532025914648305e-05 1.0998271102417749e-05 0.0000000000000000e+00  4.0237005040797086e-05 -1.1571677418277666e-08 0.0000000000000000e+00  4.0171432137328646e-05 1.3134712816632413e-08 0.0000000000000000e+00  4.0227173105453704e-05 1.1992958739041638e-08 0.0000000000000000e+00  4.0003008156706406e-05 4.5013194742844980e-08 0.0000000000000000e+00  4.0208854933114901e-05 4.0354364295862135e-09 0.0000000000000000e+00  4.0081702021939690e-05 1.0982379515350746e-08 0.0000000000000000e+00  4.0172077892345454e-05 9.6626459751079002e-09 0.0000000000000000e+00  4.0003081929449583e-05 2.9996555989798545e-09 0.0000000000000000e+00  4.0221405729305526e-05 -3.8591277278979741e-08 0.0000000000000000e+00  4.0101505474789420e-05 2.3766951950444567e-08 0.0000000000000000e+00  4.0064425585301675e-05 -1.4869401676122670e-08 0.0000000000000000e+00  4.0156659232565455e-05 1.6659465048093938e-08 0.0000000000000000e+00  4.0213325925008122e-05 5.0376250128341282e-08 0.0000000000000000e+00  3.9942330594211157e-05 -4.6499104665065552e-08 0.0000000000000000e+00  3.9938624462377061e-05 4.3418268720053972e-08 0.0000000000000000e+00  4.0004202611474810e-05 -6.0717086748900659e-09 0.0000000000000000e+00  3.9925992981041557e-05 -2.7347549185823027e-08 0.0000000000000000e+00  4.0023790548889527e-05 -2.4338029236584212e-08 0.0000000000000000e+00  4.0218905981630341e-05 -1.0965576651841448e-08 0.0000000000000000e+00  4.0241990698405510e-05 -7.4419035758984662e-09 0.0000000000000000e+00  4.0259647844760993e-05 9.4557793921985615e-09 0.0000000000000000e+00  4.0064243376844585e-05 -3.7999671839012664e-08 0.0000000000000000e+00  3.6859293139263447e-05 -2.1698045123394860e-06 0.0000000000000000e+00  4.1138703678870779e-05 -1.1958813932707153e-06 0.0000000000000000e+00  3.9976103563163821e-05 -3.6365788967807389e-07 0.0000000000000000e+00  4.0233421376470120e-05 -1.2279416028861702e-08 0.0000000000000000e+00  4.0254850776677635e-05 -2.7016930968570433e-08 0.0000000000000000e+00  4.0255875000101956e-05 -6.3668369051638282e-09 0.0000000000000000e+00  2.6240004202541630e-20 -1.0192649031276286e-19 0.0000000000000000e+00  3.7767578615789382e-20 8.3170105536390639e-20 0.0000000000000000e+00  4.0234361804552458e-05 1.9364265754796088e-08 0.0000000000000000e+00  4.0225257712834114e-05 -5.8342354694630327e-08 0.0000000000000000e+00  4.0262013547030415e-05 7.7595353878621044e-09 0.0000000000000000e+00  3.9949035862426303e-05 1.8676864919316802e-08 0.0000000000000000e+00  4.0028669368022650e-05 2.1365787533494301e-08 0.0000000000000000e+00  4.0248363210180273e-05 -5.4173388409869313e-07 0.0000000000000000e+00  3.9736466294478087e-05 -2.4985429941187398e-06 0.0000000000000000e+00  3.9205808971055239e-05 4.3007458192190482e-08 0.0000000000000000e+00  3.9973686080462663e-05 3.4858765922067780e-08 0.0000000000000000e+00  3.9983269472772587e-05 -3.5792870180428215e-09 0.0000000000000000e+00  3.8447210451356076e-05 2.4025575985577100e-08 0.0000000000000000e+00  4.0131005422876021e-05 5.4895852362214491e-07 0.0000000000000000e+00  4.0224589010112717e-05 -5.5469574988822148e-09 0.0000000000000000e+00  3.9829087419368593e-05 4.7358375381526797e-08 0.0000000000000000e+00  4.3375896604672244e-07 -4.6992017622209979e-05 0.0000000000000000e+00  4.0231419411893495e-05 2.4895253139582010e-08 0.0000000000000000e+00  5.5558263359794695e-07 4.1307013695948390e-05 0.0000000000000000e+00  -1.6335098494300098e-18 -1.7235884729764169e-18 0.0000000000000000e+00  -3.1542488507475674e-20 2.3963214290571449e-19 0.0000000000000000e+00  1.6274875359367730e-20 2.7643385305063663e-19 0.0000000000000000e+00  1.4092839200344518e-20 -2.7895041974645412e-19 0.0000000000000000e+00  -3.2007584128984237e-20 -2.8931530589315622e-19 0.0000000000000000e+00  -1.8073895235184329e-18 1.4342667712594268e-18 0.0000000000000000e+00  4.0097672792820315e-05 -2.7825096561948580e-08 0.0000000000000000e+00  3.8685718295081875e-05 3.3391408315262621e-08 0.0000000000000000e+00  3.8669515359145853e-05 -8.8763813966238207e-08 0.0000000000000000e+00  3.8637411934812565e-05 1.2518305784146544e-08 0.0000000000000000e+00  3.8657123160690833e-05 -5.7291333733527669e-09 0.0000000000000000e+00  3.8623909667703020e-05 4.3609844759056996e-08 0.0000000000000000e+00  3.9889715118874806e-05 5.2969741290471603e-08 0.0000000000000000e+00  4.0062851321481995e-05 5.8340744095654212e-07 0.0000000000000000e+00  3.9902938894576518e-05 -6.6005248546270711e-09 0.0000000000000000e+00  4.0183353200856710e-05 -2.0088176280022300e-08 0.0000000000000000e+00  4.0240426558382333e-05 1.1304702706098113e-08 0.0000000000000000e+00  4.0253521803011860e-05 -8.8564779461794490e-09 0.0000000000000000e+00  -6.7120212143658983e-06 5.8719543277943457e-05 0.0000000000000000e+00  -1.3773431573164623e-05 -6.0714576125460471e-05 0.0000000000000000e+00  3.8748403486212888e-05 -1.3193701572228890e-07 0.0000000000000000e+00  3.9821262756798053e-05 5.0024837274043114e-08 0.0000000000000000e+00  4.0257973322806871e-05 -8.0846862288633046e-09 0.0000000000000000e+00  4.0249358288322934e-05 -9.1739721417152272e-09 0.0000000000000000e+00  2.7093474085867277e-19 3.2548698774889533e-21 0.0000000000000000e+00  3.5639516841327950e-05 2.6968711135546686e-06 0.0000000000000000e+00  1.6274355063062510e-04 1.8815121697802429e-04 0.0000000000000000e+00  1.6353311859948841e-04 -1.9964563983783414e-04 0.0000000000000000e+00  4.0272872408206586e-05 -6.4456869744569040e-09 0.0000000000000000e+00  3.8345970092251063e-05 3.8355138617814251e-08 0.0000000000000000e+00  2.7375022642475353e-19 7.6260999005557522e-22 0.0000000000000000e+00  3.8521186009744302e-05 -6.2627501627393783e-08 0.0000000000000000e+00  4.0273282681818802e-05 7.0974787110375153e-09 0.0000000000000000e+00  3.9724030110803507e-05 3.1964680573333353e-06 0.0000000000000000e+00  4.0204108773057561e-05 1.6296807167194249e-09 0.0000000000000000e+00  2.9884288638686552e-19 -2.8197700945651267e-21 0.0000000000000000e+00  4.0251895441848801e-05 1.6159199432111691e-08 0.0000000000000000e+00  4.0236472014939056e-05 -1.7938102221796346e-08 0.0000000000000000e+00  3.9905154440869847e-05 -1.3748827097284095e-08 0.0000000000000000e+00  4.0013148104498878e-05 7.6577639761221403e-09 0.0000000000000000e+00  3.9913250772175793e-05 -2.9756029500625821e-08 0.0000000000000000e+00  2.9099168638913246e-19 2.3246083811562120e-21 0.0000000000000000e+00  4.0036496674368701e-05 -1.1763821670454744e-08 0.0000000000000000e+00  4.0256076956868994e-05 3.2065198340453504e-08 0.0000000000000000e+00  3.8724974403799832e-05 9.0121685567422977e-08 0.0000000000000000e+00  4.0249742794016325e-05 -1.7290684237322568e-09 0.0000000000000000e+00  4.0247842533500245e-05 -1.8765278910755690e-07 0.0000000000000000e+00  4.0219681018604657e-05 5.6326312644063097e-09 0.0000000000000000e+00  4.0224871333707477e-05 -9.4032785872215809e-09 0.0000000000000000e+00  3.8821926521818848e-05 -6.0962740571158692e-07 0.0000000000000000e+00  4.0010373584472803e-05 2.4236176319112992e-08 0.0000000000000000e+00  3.9994404627156783e-05 -3.6001479276558034e-08 0.0000000000000000e+00  3.9954530398643087e-05 -2.5611954050432285e-08 0.0000000000000000e+00  4.0031354645023238e-05 -6.1309625765869139e-08 0.0000000000000000e+00  4.0217028690959769e-05 1.2776430656399877e-08 0.0000000000000000e+00  3.0710271904312650e-19 -3.4869063515332852e-21 0.0000000000000000e+00  3.7126272396165476e-05 -2.1353557040241801e-05 0.0000000000000000e+00  2.1911392352907509e-05 -4.0237085569689065e-05 0.0000000000000000e+00  9.3556374263207695e-06 -3.0212456466874764e-05 0.0000000000000000e+00  2.8736442926394981e-05 -1.0145453775432047e-05 0.0000000000000000e+00  4.0262079960703804e-05 2.1192154332993395e-09 0.0000000000000000e+00  4.0229108553626236e-05 -2.1233405896633866e-08 0.0000000000000000e+00  4.0224119862999422e-05 3.4309976792212271e-09 0.0000000000000000e+00  4.0223221906736101e-05 -7.6507520438495975e-09 0.0000000000000000e+00  4.0174045896066121e-05 -7.6557788714079799e-08 0.0000000000000000e+00  3.9987078946411937e-05 8.8976948089319240e-08 0.0000000000000000e+00  3.1010792203507323e-19 5.3782332173484236e-22 0.0000000000000000e+00  3.9959008762828755e-05 5.5622510903988863e-08 0.0000000000000000e+00  4.0224602257695544e-05 -1.1904639014144203e-08 0.0000000000000000e+00  4.0223383163514003e-05 3.4544007598107966e-10 0.0000000000000000e+00  3.9949493918747786e-05 3.5764290496289668e-08 0.000000000